formula,bulk_modulus_voigt,bulk_modulus_reuss,bulk_modulus_vrh
Si,68.415,67.285,67.85
Si,58.34,39.828,49.084
Ta,195.607,195.503,195.555
O2,2.361,3.385,2.873
O2,1.917,1.559,1.738
Bi,43.788,43.452,43.62
F2,2.149,41.031,21.59
Te,43.981,41.331,42.656
O2,1.56,2.397,1.978
S,14.728,7.246,10.987
Ta,-16938340.22,294.829,-8469022.694
N2,0.831,0.816,0.823
C,402.314,400.654,401.484
Cu,137.934,137.731,137.832
C,162.128,136.002,149.065
Ga,49.645,49.645,49.645
Ca,16.882,16.88,16.881
Sn,47.219,46.168,46.694
Pa,96.152,96.151,96.151
H2,0.37,0.254,0.312
Si,81.551,81.123,81.337
Se,1.331,0.849,1.09
S,1.116,0.635,0.876
Ca,13.203,11.188,12.196
Sc,45.715,45.34,45.528
Cs,1.723,1.712,1.717
Ge,69.338,69.3,69.319
Sn,47.262,47.259,47.261
Si,108.333,106.894,107.613
Ge,56.024,55.597,55.811
Se,5.331,2.973,4.152
Si,79.906,79.274,79.59
S,2.235,1.512,1.874
F2,3.396,-8.426,-2.515
Se,9.267,-1.022,4.123
Te,22.623,16.088,19.355
S,11.284,1.471,6.378
Te,22.243,16.154,19.198
O2,3.451,3.874,3.662
Ni,31.111,-1.033,15.039
Tm,44.048,43.894,43.971
Li,13.813,13.796,13.804
Sb,36.704,28.187,32.445
Dy,41.073,41.004,41.039
Ho,42.29,42.22,42.255
As,47.915,14.861,31.388
Tb,40.153,40.104,40.128
Hg,11.76,11.154,11.457
P,61.079,37.591,49.335
B,212.455,207.99,210.223
B,198.606,467.803,333.205
C,227.227,4.166,115.697
Bi,30.589,24.945,27.767
C,223.074,3.566,113.32
Hg,7.626,7.617,7.622
Ga,47.288,46.933,47.111
C,185.056,5.47,95.263
C,435.383,435.246,435.315
O2,3.226,19.362,11.294
Sm,36.422,36.392,36.407
Rb,2.76,2.758,2.759
Yb,14.706,14.675,14.69
Lu,44.891,44.811,44.851
Re,365.41,365.097,365.253
N2,0.97,1.659,1.314
Li,13.655,13.645,13.65
Hg,7.876,7.807,7.842
Sr,9.012,8.865,8.938
Si,106.609,106.389,106.499
C,221.09,4.579,112.835
Ba,7.808,7.808,7.808
Ti,112.955,112.807,112.881
H2,26.92,1.348,14.134
Ge,59.556,59.501,59.529
Au,135.103,105.047,120.075
Ge,63.209,62.746,62.978
Na,7.796,7.758,7.777
Li,14.481,14.208,14.344
Ni,197.399,197.29,197.345
Hf,108.327,108.248,108.287
Pr,32.616,32.593,32.605
Ag,90.122,90.122,90.122
Si,87.315,87.262,87.289
Y,41.723,41.712,41.717
Tc,296.018,295.997,296.007
Cs,1.972,1.972,1.972
Hg,7.904,7.849,7.877
K,3.577,3.576,3.576
Re,364.911,364.886,364.898
N2,0.637,0.636,0.637
Nd,33.845,33.842,33.844
Zr,93.989,93.673,93.831
Ca,17.427,17.272,17.349
Fe,296.003,295.207,295.605
Sr,11.543,11.516,11.529
Tm,45.526,45.506,45.516
Ho,43.161,43.091,43.126
Mg,36.451,36.445,36.448
Si,88.835,88.795,88.815
Tb,38.74,38.158,38.449
Ce,34.742,34.616,34.679
Ce,32.021,31.852,31.937
Pb,41.411,36.036,38.724
H2,0.101,0.101,0.101
H2,0.597,0.341,0.469
La,25.925,25.794,25.86
Ru,310.48,309.645,310.062
Pr,32.217,32.215,32.216
Ti,112.979,112.908,112.944
C,435.393,435.355,435.374
C,227.728,4.224,115.976
Os,400.984,399.836,400.41
Co,-1127.575,-1127.582,-1127.579
Ba,8.264,8.254,8.259
Xe,0.646,0.641,0.643
H2,0.076,-0.019,0.028
Tb,40.029,40.015,40.022
K,3.566,3.566,3.566
Rb,2.781,2.78,2.781
C,435.56,435.554,435.557
C,435.363,435.362,435.362
Sc,54.573,54.493,54.533
N2,-1.19,-1.151,-1.17
Sm,35.591,35.233,35.412
Sm,36.693,36.692,36.692
Zn,76.283,95.46,85.872
Re,365.069,365.022,365.046
Sb,128.406,148.894,138.65
Tl,26.678,26.078,26.378
Ag,88.449,88.448,88.449
Ac,24.652,24.645,24.648
Pm,35.283,35.282,35.282
Sr,11.453,11.435,11.444
Tc,299.675,299.666,299.67
Be,120.143,119.894,120.019
Dy,40.433,40.06,40.246
Cd,41.965,41.854,41.91
Tl,26.913,26.699,26.806
In,33.157,37.282,35.22
Mg,36.002,35.993,35.997
Ho,42.275,42.272,42.273
Li,13.866,13.866,13.866
Na,7.773,7.773,7.773
Cu,132.247,132.08,132.163
Er,44.76,44.76,44.76
N2,273.401,273.401,273.401
P,0.978,0.969,0.973
N2,0.692,0.692,0.692
Si,86.24,86.24,86.24
C,387.827,387.827,387.827
Mn,248.699,248.688,248.693
Li,9.564,9.564,9.564
C,255.04,255.04,255.04
Si,79.715,79.715,79.715
Ga,62.324,62.324,62.324
As,79.731,79.731,79.731
Sc,36.883,36.883,36.883
Te,50.533,50.533,50.533
Sb,56.475,56.475,56.475
P,98.196,98.196,98.196
Bi,46.757,46.757,46.757
Fe,137.541,137.541,137.541
Se,70.526,70.526,70.526
C,355.313,355.313,355.313
W,298.22,298.22,298.22
Cr,252.155,252.155,252.155
F2,396.655,396.655,396.655
Sn,30.714,36.531,33.622
Si,75.91,75.91,75.91
Ac,23.574,23.574,23.574
U,110.797,110.797,110.797
Ir,345.128,345.128,345.128
K,3.578,3.578,3.578
Co,200.587,200.587,200.587
Sn,46.107,46.107,46.107
Sb,57.234,57.234,57.234
Pa,94.772,94.772,94.772
Dy,41.225,41.225,41.225
Er,42.186,42.186,42.186
Ne,3.177,3.177,3.177
Pu,34.9,34.9,34.9
Ge,63.414,63.414,63.414
Ag,87.692,87.692,87.692
Pt,248.014,248.014,248.014
Rb,2.805,2.805,2.805
Al,76.871,76.871,76.871
Fe,168.195,168.195,168.195
Tl,26.891,26.891,26.891
La,20.188,20.188,20.188
Nd,31.862,31.862,31.862
Yb,14.766,14.766,14.766
Pd,166.982,166.982,166.982
Pb,39.516,39.516,39.516
Sm,36.46,36.46,36.46
Ni,173.808,173.808,173.808
Ar,0.098,0.098,0.098
Si,82.344,82.344,82.344
Ce,39.339,39.337,39.338
Cu,151.394,151.394,151.394
Sc,50.651,50.651,50.651
Th,55.005,55.005,55.005
Ca,17.224,17.224,17.224
Li,13.874,13.874,13.874
Kr,0.597,0.597,0.597
H2,0.157,0.157,0.157
P,0.108,0.108,0.108
S,79.879,79.879,79.879
Ti,108.54,108.54,108.54
Ta,191.164,191.164,191.164
Tb,40.344,40.344,40.344
N2,0.145,0.145,0.145
Rh,252.9,252.9,252.9
Hg,6.758,6.758,6.758
Sr,10.978,10.978,10.978
Au,134.195,134.195,134.195
In,35.252,35.238,35.245
V,176.702,176.702,176.702
Cr,233.911,233.911,233.911
Mn,280.959,280.959,280.959
Zr,89.974,89.974,89.974
Nb,167.391,167.391,167.391
Mo,242.484,242.484,242.484
Tc,298.021,298.021,298.021
Ru,303.897,303.897,303.897
Hf,102.549,102.549,102.549
W,285.901,285.901,285.901
Re,363.048,363.048,363.048
Os,394.005,394.005,394.005
Y,39.59,39.59,39.59
Pr,32.211,32.21,32.21
Na,7.76,7.76,7.76
Br,28.537,28.537,28.537
O2,120.896,120.896,120.896
Sn,35.858,35.858,35.858
Se,38.837,38.837,38.837
Si,88.916,88.916,88.916
Si,61.244,61.244,61.244
Ge,57.916,57.916,57.916
C,435.156,435.156,435.156
Cs,1.974,1.974,1.974
Hf,99.012,99.012,99.012
Ni,192.55,192.55,192.55
Si,92.478,92.478,92.478
Hg,24.449,24.448,24.448
Sc,53.18,53.18,53.18
Er,41.942,41.942,41.942
U,141.249,141.249,141.249
Mg,36.66,36.66,36.66
Th,56.969,56.969,56.969
Gd,172.491,172.491,172.491
Se,73.384,73.384,73.384
Ba,8.934,8.934,8.934
Na,7.808,7.808,7.808
Mo,262.529,262.529,262.529
Fe,207.747,206.439,207.093
Li,13.87,13.87,13.87
V,181.232,181.232,181.232
Be,125.076,125.076,125.076
Ca,15.845,15.845,15.845
Pb,37.674,37.674,37.674
He,1.014,1.014,1.014
Tl,27.941,27.941,27.941
Nd,30.908,30.908,30.908
Zr,88.4,88.4,88.4
Ta,194.527,194.527,194.527
Bi,52.755,52.755,52.755
C,311.258,311.258,311.258
K,66608.192,3.723,33305.958
H2,0.038,0.038,0.038
Br,24.142,24.142,24.142
I,23.552,23.552,23.552
Rb,2.795,2.786,2.79
Yb,15.868,15.868,15.868
Sn,46.763,46.763,46.763
Ti,111.049,111.049,111.049
Nb,172.165,171.936,172.05
Cr,234.148,233.156,233.652
W,302.264,302.264,302.264
Sr,12.611,12.611,12.611
Kr,0.501,0.501,0.501
Al,70.361,70.361,70.361
Ge,61.324,61.324,61.324
Cu,139.175,139.175,139.175
Te,34.909,33.595,34.252
P,5.385,0.39,2.888
Np,168.42,165.495,166.958
Ga,43.698,67.16,55.429
Se,39.492,3.21,21.351
Si,86.717,77.912,82.314
U,150.101,145.519,147.81
Ga,49.514,49.467,49.491
Ce,45.141,43.197,44.169
Cl2,3.525,0.787,2.156
Ge,63.49,60.379,61.934
Ga,50.194,49.854,50.024
Hg,6.294,6.069,6.181
P,33.389,7.987,20.688
I,8.398,1.276,4.837
Br,6.809,1.411,4.11
F2,3.169,2.147,2.658
C,350.007,273.122,311.565
Te,40.143,-0.411,19.866
C,230.076,5.993,118.035
Si,100.312,93.498,96.905
C,231.682,5.949,118.816
Zr,89.974,87.574,88.774
Ge,55.065,52.269,53.667
TiO,196.379,194.754,195.566
TaAs2,134.335,131.954,133.144
SiPt3,205.694,202.208,203.951
Zn13Rh,88.86,87.979,88.419
MoN2,169.144,118.795,143.969
Re3P4,185.566,182.02,183.793
NpCl4,-342.26,22.669,-159.796
Te2Ir,92.632,82.092,87.362
Ti3Te4,52.393,51.951,52.172
Nb2O5,140.923,130.195,135.559
Zn13Fe,84.104,82.593,83.349
Sm2O3,136.616,130.192,133.404
NbSb2,97.015,95.427,96.221
Ni3Sn4,97.196,96.471,96.833
TiCl3,12.288,1.371,6.83
CoGe,161.04,152.447,156.743
FeGe,139.706,134.224,136.965
V3Se4,81.378,79.118,80.248
MoCl3,21.559,2.556,12.057
ZrCl3,12.434,3.287,7.86
CuBr2,19.53,5.682,12.606
Er2O3,154.868,151.04,152.954
AlCu,113.146,112.011,112.579
AsPd5,152.119,151.478,151.799
AlCl3,17.864,2.154,10.009
LiN3,40.22,31.578,35.899
GdBr3,4.119,-5.424,-0.652
SnI2,10.578,9.323,9.95
Al8Mo3,142.942,142.559,142.751
YCl3,9.077,2.357,5.717
Nb6C5,235.543,235.384,235.464
CrCl3,15.859,4.25,10.055
IrCl3,21.055,3.283,12.169
Y2Cl3,23.541,7.116,15.328
Nb2Se,120.062,119.377,119.719
Fe3Se4,87.494,82.76,85.127
Cr3Se4,60.239,59.01,59.625
AuSe,14.848,3.183,9.015
NaN3,9.229,2.689,5.959
SrN,40.787,37.431,39.109
Mn2Au5,127.765,127.379,127.572
GaCl3,1.014,0.825,0.919
CuCl2,11.3,0.98,6.14
Mg5Si6,52.498,42.012,47.255
Ga3Pd7,151.557,150.426,150.991
Nb10C7,227.343,225.542,226.442
Te3As2,19.654,10.79,15.222
GaTe,15.783,3.492,9.638
TiO2,181.029,180.113,180.571
Tm2O3,157.756,153.839,155.798
Y2O3,144.824,140.65,142.737
Al13Os4,147.982,146.817,147.4
RbSb2,14.381,13.489,13.935
Ca3N2,68.997,68.442,68.719
Mg5Si6,63.207,62.669,62.938
BiI,5.957,1.768,3.863
Li9Al4,31.641,30.685,31.163
Bi2Pd,56.293,54.775,55.534
InBr3,8.573,2.862,5.717
NaN3,26.998,19.766,23.382
Al3Mo,136.235,135.191,135.713
Ni3Se4,90.676,86.546,88.611
MgZn5,63.401,62.141,62.771
TaTe2,33.413,14.881,24.147
V2H,190.978,189.723,190.35
Gd2O3,101.3,88.417,94.858
Sc2S3,55.625,55.362,55.493
BaSb3,27.171,27.06,27.116
CdCl2,13.112,2.597,7.855
Al2O3,187.621,185.109,186.365
NbO2,163.192,157.095,160.143
Al2O3,130.618,127.275,128.947
YBr3,6.896,2.217,4.557
ZrO2,160.232,159.257,159.745
B8O,204.994,204.7,204.847
NbAs2,126.311,124.001,125.156
TiO2,168.646,142.098,155.372
ZrO2,134.734,120.75,127.742
Ga2O3,156.516,154.573,155.545
CaC2,58.078,57.209,57.644
Al2Te5,9.38,2.111,5.745
GeAs,31.167,8.926,20.046
BiS2,29.724,17.266,23.495
LiMg2,29.778,29.761,29.769
SF6,5.711,5.385,5.548
LiMg,25.763,25.723,25.743
Li2Mg,20.698,20.996,20.847
Yb2Mg,19.296,24.529,21.912
YMg5,37.565,37.501,37.533
SrAs3,38.218,37.43,37.824
VP2,156.198,153.437,154.817
HC,19.353,5.593,12.473
CuCl4,1.031,1.167,1.099
SF4,5.967,5.836,5.902
GeSe2,15.265,11.91,13.587
TiS2,7.823,6.086,6.954
BiS2,2.272,1.174,1.723
ZnCl2,7.616,6.121,6.868
B4C,224.763,214.001,219.382
SiO2,52.103,33.156,42.63
Al4C3,141.214,134.559,137.887
B9C,195.358,191.215,193.287
FeCl3,3.88,8.49,6.185
Al2O3,148.35,134.917,141.633
Al2O3,185.538,194.068,189.803
Al2O3,168.258,164.062,166.16
Al2O3,98.994,79.63,89.312
NbRh,218.364,217.298,217.831
LiSn,34.86,34.533,34.696
Sn7Ir5,135.486,135.055,135.271
GeAs,71.666,64.487,68.076
TaAs,177.321,174.228,175.774
NbAs,163.264,159.255,161.259
Ba2S3,34.252,31.801,33.026
NbP,188.735,183.158,185.947
TiNi,152.412,141.091,146.751
SrSb2,31.007,28.095,29.551
NbPt3,249.261,249.247,249.254
AlAu,109.101,75.774,92.438
HfSe3,25.782,2.998,14.39
Mo2S3,100.699,95.927,98.313
ZrSe3,24.495,5.821,15.158
Ag2S,14.088,5.717,9.903
ZrTe3,25.91,13.907,19.908
Er2S3,69.616,69.104,69.36
Nb2Se3,70.762,66.195,68.479
LiBe,47.216,22.761,34.988
TaSe3,33.94,4.556,19.248
Si5Pt6,182.706,178.816,180.761
Li7Sn3,30.349,30.323,30.336
P2O3,3.434,2.53,2.982
NbSe3,30.834,14.812,22.823
Y2S3,65.961,65.453,65.707
Si5Rh4,182.044,181.055,181.55
ZrI2,18.247,2.244,10.245
BaSb2,29.632,27.529,28.581
Sb6O13,119.718,119.167,119.442
Te2Mo,33.556,3.126,18.341
CaSb2,37.175,31.257,34.216
Y2O3,129.658,126.728,128.193
Ti2O3,218.33,194.962,206.646
DyP5,68.876,63.776,66.326
LuP5,70.365,66.851,68.608
TiS3,30.652,-0.953,14.85
ZrS3,29.133,8.136,18.634
HfS3,29.955,3.434,16.695
Ta2Se3,74.875,67.116,70.995
CN2,157.639,10.734,84.186
Cu3Se2,74.087,73.003,73.545
BaS3,33.243,32.915,33.079
Bi2O3,20.242,20.242,20.242
SeO3,5.11,5.11,5.11
P2Rh3,213.926,204.359,209.142
MgCl2,8.284,2.922,5.603
Ta2H,203.859,201.18,202.519
Si3Ru2,200.365,199.945,200.155
Sn3Ru2,126.842,124.817,125.829
CN2,410.882,384.26,397.571
GaAs,65.878,64.62,65.249
ZrH,114.351,111.617,112.984
ReGe2,160.279,154.161,157.22
V3Te4,49.295,49.159,49.227
MgCd,42.267,41.243,41.755
NaN3,9.038,2.245,5.642
NaN3,106.806,69.637,88.221
V3S4,98.374,95.719,97.046
P2W,191.975,186.778,189.376
Ti3O5,180.358,161.153,170.755
NbTe2,35.126,20.929,28.028
VTe2,31.377,18.896,25.137
Tc2P3,187.522,183.084,185.303
As3W2,136.43,133.509,134.969
TaSb2,102.316,100.422,101.369
Co3Se4,95.68,87.885,91.783
SiO2,36.827,33.293,35.06
GeS2,19.718,16.265,17.991
SiS2,28.359,26.472,27.416
GaAs,64.777,64.597,64.687
MnFe,1030.354,1910.582,1470.468
NaAs,42.173,42.172,42.172
NdAs,72.016,71.049,71.533
PrAs,70.449,69.598,70.023
SmAs,74.373,73.262,73.818
MgNi,89.152,87.348,88.25
Na2Cl,14.991,14.386,14.689
CaC4,201.114,89.623,145.368
MgCd,41.927,41.35,41.638
MgAl,55.776,55.256,55.516
SnO,99.836,75.281,87.558
Ga2Cu,72.41,69.204,70.807
Hg2Pt,85.635,79.952,82.793
CeAg,46.237,31.872,39.055
Hg2Rh,88.871,87.666,88.269
CdPt,140.028,139.754,139.891
NdSb,60.078,59.838,59.958
TiIr,227.391,227.38,227.385
VRh,232.571,232.556,232.563
CdTe,35.701,33.673,34.687
Al2Cu,100.047,98.816,99.432
VIr,273.227,273.187,273.207
NbIr,259.362,258.274,258.818
TiHg,104.447,104.382,104.414
TaRu,253.387,253.237,253.312
PrSb,58.741,58.461,58.601
ZnPd,140.597,140.493,140.545
MnPt,167.004,165.351,166.177
CdPd,111.885,111.826,111.855
TiAl,113.507,113.46,113.483
TiAg,101.124,95.717,98.421
NbRh,227.641,226.817,227.229
ThPb,68.648,68.563,68.606
CaPb,34.318,34.016,34.167
NpSb,71.066,70.155,70.61
FeSi2,188.033,182.206,185.12
UPb,68.468,48.057,58.263
CeSb,-32.181,-36.969,-34.575
PuIn,50.842,46.114,48.478
FeNi,185.282,184.521,184.902
FePt,200.398,200.383,200.39
NaBi,29.906,29.062,29.484
MgIn,39.005,38.835,38.92
MnPd,131.934,131.266,131.6
ZrHg,101.874,100.713,101.293
TlSn,35.941,35.727,35.834
TiRh,188.005,186.997,187.501
VPt,241.792,241.55,241.671
HgPd,114.758,114.733,114.745
MnIr,265.336,265.335,265.335
TiGa,116.344,116.03,116.187
FePd,168.069,168.069,168.069
ZnNi,144.716,144.674,144.695
NbRu,234.553,234.399,234.476
CuAu,141.111,135.292,138.201
CaF2,76.471,76.245,76.358
Ti3Pd5,160.467,160.437,160.452
RbN3,17.692,14.902,16.297
Fe3Co,182.318,182.248,182.283
Fe11Co5,193.849,193.848,193.849
HgPt,143.372,143.355,143.364
NbO,165.326,93.866,129.596
Fe13Co3,170.183,170.179,170.181
Cu3Pd,152.571,152.077,152.324
Mn11Pd21,142.334,141.942,142.138
MnAl,128.984,116.074,122.529
Si2Ru,174.525,171.858,173.191
ZnPt,174.463,173.929,174.196
NiPt,217.073,216.219,216.646
CoPt,218.832,217.668,218.25
GaP,76.871,76.814,76.842
CsIr,44.511,44.488,44.499
Al3Cu,64.105,63.92,64.012
AlAs,60.086,57.924,59.005
CO3,157.141,139.068,148.104
MnFe3,195.981,195.979,195.98
NbTe4,32.236,32.208,32.222
TaTe4,32.225,32.17,32.198
NdGa6,61.625,59.641,60.633
PtPb4,14.272,11.174,12.723
SiO2,89.353,89.351,89.352
LaGa6,60.7,58.077,59.389
CeGa6,273172360.1,90.215,136586225.2
La3Si2,58.383,57.854,58.118
ReN2,384.33,383.776,384.053
Be2Nb3,166.735,166.711,166.723
Ca3Hg2,30.443,30.437,30.44
Nb3Ga2,168.026,167.786,167.906
CeB4,-782526.957,-1.539,-391264.248
V2Ga5,113.564,112.617,113.09
Nb3B2,241.602,241.486,241.544
V3B2,258.072,257.131,257.602
Hf3Si2,144.852,142.554,143.703
Hf2In5,73.696,72.374,73.035
ErB4,181.356,180.57,180.963
Th3Ga2,74.32,74.179,74.25
Zr3Ga2,111.224,110.811,111.017
Hg5Pd2,68.818,68.351,68.584
Th3Ge2,85.641,85.616,85.628
LuB4,182.269,181.214,181.742
AlPt3,218.793,218.699,218.746
YB4,177.715,177.122,177.419
LaB4,170.081,170.078,170.08
Li2Sn5,41.747,41.7,41.724
Hf3Ge2,134.328,133.515,133.921
AlP,17.103,0,8.551
ZrCd,79.312,78.924,79.118
TiAg,102.925,101.985,102.455
DyTe2,58.83,58.825,58.827
DySe2,77.106,77.093,77.099
ErTe2,59.583,59.575,59.579
HfSb2,87.534,87.491,87.513
HoSe2,77.665,77.649,77.657
HoTe2,59.178,59.176,59.177
LaS2,79.562,79.314,79.438
PrSe2,69.985,69.935,69.96
SmTe2,56.918,56.899,56.908
TbTe2,58.633,58.631,58.632
TbSe2,76.396,76.382,76.389
ZrAg,105.291,105.274,105.282
HfAg,114.293,113.94,114.117
LaTe2,52.645,52.508,52.576
Cu2Sb,79.518,78.978,79.248
PbO,25.606,5.662,15.634
FeSe,36.907,5.71,21.309
Fe2As,143.955,128.304,136.13
Cr2As,155.818,154.428,155.123
CeS,32.724,0.517,16.621
Mn2Sb,83.067,82.719,82.893
TiCu,127.975,127.512,127.744
SnO,40.401,19.109,29.755
GdO2,158.628,154.054,156.341
FeTe,29.895,6.545,18.22
CuI,8.532,4.041,6.287
CuBr,9.222,2.705,5.964
InBi,33.717,29.714,31.715
PbS,13.93,-0.028,6.951
VN,305.263,292.8,299.032
USb2,72.114,71.327,71.721
Be4B,138.196,138.191,138.194
TiCd,81.785,81.319,81.552
UP2,119.667,117.077,118.372
FeS,54.539,0.775,27.657
AgI,6.484,3.526,5.005
ZnSe,14.742,1.856,8.299
NiSe,11.621,10.704,11.162
ThBi2,64.422,62.744,63.583
CuSe,28.362,23.427,25.895
CoSe,20.801,0.602,10.701
MnSe,37.325,7.664,22.494
VSe,35.594,12.122,23.858
Mn2As,143.768,141.662,142.715
Ti2Cu3,130.17,130.145,130.158
Sc2Sb,72.397,71.68,72.039
Cu2As,111.19,109.567,110.379
ThSb2,73.887,72.334,73.11
ZrS,119.034,113.147,116.09
Ta2Se,72.066,13.146,42.606
SnSe,12.445,-1.049,5.698
LuTe2,60.63,60.621,60.626
PrTe2,54.866,54.808,54.837
ErSe2,78.659,78.647,78.653
TaPd,202.236,201.423,201.83
PrN,65.754,41.051,53.402
Al2O3,197.421,196.562,196.991
IrN,316.055,286.604,301.33
SiC2,172.415,158.275,165.345
PdO,162.329,149.115,155.722
CuO,152.093,136.637,144.365
AgO,107.404,97.725,102.564
PtS,139.097,123.283,131.19
TiH,128.301,127.186,127.744
ZrH,119.331,118.911,119.121
TcN,293.701,263.92,278.811
ReN,337.072,310.677,323.875
OsN,343.856,315.318,329.587
SeO2,19.757,15.468,17.612
BeC2,117.857,44.545,81.201
Zr2N,175.065,174.51,174.788
CeO2,139.994,117.618,128.806
Ca2Zn,23.007,22.816,22.911
Ce2Mg,31.747,29.857,30.802
PdF2,101.279,86.78,94.029
YbBr2,28.905,28.767,28.836
TiH2,157.528,156.075,156.801
Te2Ir,85.342,81.269,83.306
MgF2,92.741,91.679,92.21
ReO2,297.612,294.123,295.868
Y3Al2,59.535,58.787,59.161
Ca3Cd2,28.129,28.127,28.128
Nb2Al,160.03,159.919,159.974
ZnF2,97.037,92.627,94.832
BiO2,1458444.896,-40219.236,709112.83
PbO2,120.659,108.727,114.693
TaO2,255.635,255.171,255.403
TeO2,148.041,145.025,146.533
CaCl2,32.182,31.792,31.987
MgH2,50.944,48.165,49.554
NbO2,235.078,233.943,234.511
TiO2,213.77,203.306,208.538
IrO2,276.282,262.587,269.435
MgC2,81.826,73.204,77.515
GeO2,211.214,194.617,202.915
KrF2,5.413,5.287,5.35
TbCl3,12.944,12.822,12.883
CaBr2,25.923,25.536,25.73
Ga3Fe,103.731,101.442,102.587
Ta2Al,161.662,161.437,161.55
CO2,4.789,4.56,4.674
SiO2,280.693,263.962,272.328
RhO2,239.205,230.613,234.909
BeO,196.79,194.249,195.52
ZrO2,198.699,190.452,194.576
HfO2,215.155,207.942,211.548
RuO2,256.936,247.527,252.231
Ti2N,204.071,203.696,203.884
Hf3Al2,116.629,116.571,116.6
SnO2,176.318,167.548,171.933
ScI2,19.531,19.918,19.725
ScS2,-1835095.206,79.551,-917507.827
ScBr2,38.135,37.307,37.721
RhI2,56.779,54.418,55.598
PaO2,148.229,134.935,141.582
PbBr2,25.045,24.909,24.977
PbCl2,29.683,29.26,29.472
TeBr2,4.259,1.284,2.772
ICl2,8.638,1.21,4.924
HoCl2,45.485,45.393,45.439
Hf2N,194.606,194.212,194.409
YBr2,35.507,35.482,35.495
YbCl2,36.366,36.085,36.225
YbF2,83.046,80.377,81.712
SmCl2,-9210.949,0,-4605.475
RhCl2,79.104,74.659,76.882
SnI2,20.775,20.663,20.719
WN2,272.634,259.137,265.886
OsO2,288.276,274.124,281.2
HfO2,194.399,177.279,185.839
Zn3P2,64.529,64.499,64.514
HgI2,5.127,1.657,3.392
ZrO2,174.726,159.965,167.345
ZnCl2,9.553,3.404,6.478
AuI,2.254,2.081,2.167
MnB,180.906,166.704,173.805
InPd3,143.549,143.413,143.481
FeNi3,193.05,193.046,193.048
CrNi3,196.335,196.228,196.281
Cr3Ni,-22461976.04,636347.224,-10912814.41
ZrAg2,108.578,108.121,108.35
YbAg2,51.824,51.275,51.549
TiS2,88.95,31.132,60.041
ReC2,358.397,355.202,356.799
NbS2,59.185,6.43,32.808
Hf2Tl,105.177,100.555,102.866
CaN2,87.439,77.936,82.688
BaSi2,19.143,17.669,18.406
Al2Ru,168.334,168.295,168.314
Ca2As,38.943,36.579,37.761
CeSe2,54.03,53.869,53.95
Ti2Zn,112.112,112.1,112.106
Hf2Zn,109.609,109.609,109.609
Cr3N2,159.773,165.647,162.71
Cr3Fe,351.671,216.709,284.19
ZrPd2,145.955,145.814,145.885
ZrAu2,141.778,139.619,140.699
Zr2Cd,79.201,78.791,78.996
TiPd2,160.325,160.197,160.261
TiAu2,147.859,147.008,147.433
Ti2Rh,162.654,161.646,162.15
ScAg2,88.996,88.677,88.836
PaC2,190.969,179.256,185.112
ScAu2,118.448,116.691,117.569
ScCu2,101.757,101.503,101.63
HfAu2,153.52,150.721,152.12
Hf2Hg,111.61,111.389,111.5
AlTc2,224.842,224.226,224.534
AlAu2,128.672,126.562,127.617
Ge2Mo,172.218,171.558,171.888
Cu3O2,131.228,93.71,112.469
MgAl3,65.236,64.988,65.112
Ca3Zn,19.53,19.419,19.475
Mg3Cd,38.262,38.208,38.235
SrN2,72.166,65.087,68.626