formula,bulk_modulus_voigt,bulk_modulus_reuss,bulk_modulus_vrh
Be3Nb,154.248,153.134,153.691
TePt,54.32,39.425,46.872
La2Co7,187.487,493.793,340.64
Sb2Te3,24.104,14.084,19.094
Ir4Os,354.278,354.144,354.211
IrRu,327.599,326.009,326.804
Li5Tl2,24.464,24.145,24.305
Sr2N,26.387,22.953,24.67
Dy2C,59.503,54.859,57.181
Ti2Be17,126.706,126.697,126.701
Y2C,61.497,56.983,59.24
B6O,231.913,225.466,228.689
SnO2,79.773,5.673,42.723
CrS2,25.672,52.691,39.182
SbO2,63.268,8.829,36.048
MnS2,18.265,-5.922,6.171
Fe7W6,366.009,308.93,337.469
Al4C3,159.538,159.226,159.382
Ho2C,62.508,57.912,60.21
Li3Al2,39.451,38.389,38.92
Y2Zn17,80.605,80.599,80.602
NbS2,38.312,12.062,25.187
InP3,52.116,43.82,47.968
NaN3,28.391,22.729,25.56
CdCl2,13.276,4.018,8.647
PbI2,5.448,2.439,3.943
MgCl2,14.994,2.327,8.66
FeCl2,17.09,2.451,9.771
CoCl2,-5.494,-31.68,-18.587
B2Mo,301.811,298.487,300.149
PuRu2,178.634,139.482,159.058
YAl3,73.368,70.185,71.776
TiO2,85.253,0.827,43.04
Ca2N,36.255,31.492,33.874
CaSi2,63.664,60.769,62.216
CaSi2,62.004,61.424,61.714
NiCl2,28.116,6.375,17.245
ZrCl,41.881,-4.206,18.837
Fe3Sn2,111.067,106.528,108.798
ScCl,18.777,-4.859,6.959
NiBr2,21.228,2.755,11.992
NiI2,20.645,19.935,20.29
LaBr,15.316,9.747,12.532
Li2Si,33.242,32.526,32.884
Ti8C5,169.901,167.184,168.542
MnCl2,14.539,-0.223,7.158
B6P,201.907,195.021,198.464
DyMn2,74.238,74.228,74.233
V3Sb2,104.203,101.558,102.88
Be17Nb2,140.051,140.051,140.051
Li5Sn2,29.975,29.407,29.691
Bi2Te3,18.753,10.051,14.402
Th3N4,156.194,137.878,147.036
ZrBr,28.959,12.811,20.885
B13N2,246.654,246.544,246.599
PbI2,6.168,23.782,14.975
Bi2Se3,18.966,2.538,10.752
Ce5Co19,-10019333.95,495.609,-5009419.169
Ce2Zn17,76.124,76.099,76.111
TaS2,39.352,3.164,21.258
TiS,129.822,128.175,128.998
TiS2,15.363,-3.508,5.928
CaGe2,49.654,49.185,49.42
TaSe2,29.565,9.634,19.6
Co7Mo6,321.071,314.515,317.793
CdI2,11.689,4.628,8.158
Bi2Te3,40.58,33.036,36.808
YNi3,134.739,133.313,134.026
Fe7Mo6,254.281,252.124,253.202
ZnBr2,16.056,3.106,9.581
Tb2Fe17,103.617,99.154,101.385
B4C,138.051,94.785,116.418
B13C2,224.211,222.08,223.146
CuPt,191.109,190.262,190.686
Tb2C,58,55.028,56.514
B4C,226.464,226.388,226.426
B5Mo2,268.88,219.183,244.031
Nb6Co7,221.485,220.015,220.75
HfNi3,177.317,176.333,176.825
Rb2O,9.294,2.186,5.74
SnP3,46.479,40.045,43.262
GeP3,57.516,39.891,48.704
Hf3N4,218.237,206.989,212.613
TaCo3,269634.853,293.797,134964.325
Cs2O,8.652,4.399,6.526
WN2,311.837,310.954,311.395
ErAl3,77.304,76.267,76.785
Te4Pt3,57.11,37.927,47.518
YCo,55.122,51.737,53.429
Pr2Fe17,104.892,176.641,140.767
HoAl3,76.784,75.725,76.254
Li3Ga2,38.601,38.28,38.44
SiB4,135.716,123.547,129.631
GaS,26.456,2.917,14.686
Na2Cl,13.673,13.347,13.51
RuC,285.045,284.084,284.565
Ca3N2,71.598,70.364,70.981
Al2O3,232.111,229.896,231.003
PdF3,29.808,25.43,27.619
Zr3O,131.914,131.204,131.559
Mg13Ir3,60.243,60.236,60.24
RhF3,58.372,51.945,55.159
In2O3,152.38,146.4,149.39
In2S3,71.021,70.048,70.535
AlH3,31.959,23.885,27.922
TeO3,98.368,80.101,89.234
TmCl3,14.424,10.183,12.303
Lu2S3,77.154,76.377,76.765
Ti2O3,215.156,213.631,214.394
AlF3,47.118,31.119,39.119
Al5Mo,119.824,116.018,117.921
Y2O3,140.697,131.086,135.891
Sc2O3,175.504,169.797,172.651
Ni3C,198.768,197.881,198.324
Ir2S3,168.879,161.974,165.426
Yb3N2,76.266,73.541,74.904
B2S3,38.547,1.574,20.061
Zr3N2,196.004,194.489,195.246
Al2S3,32.905,32.246,32.575
SmO3,67.883,67.306,67.594
HoO3,72.022,71.465,71.744
Ge3N4,175.098,174.454,174.776
C3N4,408.432,408.082,408.257
LaCl3,33.064,30.424,31.744
NdCl3,36.765,32.5,34.633
BCl3,0.263,-0.036,0.113
BI3,0.835,0.776,0.806
UCl3,33.273,30.073,31.673
BBr3,1.814,1.246,1.53
UBr3,27.266,22.851,25.058
LaBr3,28.298,22.647,25.473
GdCl3,35.973,22.045,29.009
AcCl3,28.803,26.15,27.477
AcBr3,25.285,23.41,24.348
Mg9Si5,58.503,58.427,58.465
TbCl3,36.898,15.82,26.359
Mg3Ge,39.372,30.638,35.005
Si3N4,234.755,234.383,234.569
VSi2,176.29,174.574,175.432
CrSi2,194.848,194.31,194.579
Mg2Ni,72.885,69.237,71.061
NbSi2,176.333,174.074,175.204
Sn2Mo,117.074,117.059,117.067
NbGe2,145.777,142.703,144.24
TaSi2,185.973,183.429,184.701
SiO2,134.449,133.697,134.073
TaGe2,150.461,147.186,148.824
Si2Mo,207.764,206.752,207.258
Si2W,220.797,219.946,220.371
VSi2,175.47,173.84,174.655
CrSi2,194.909,194.387,194.648
TaSi2,185.95,183.407,184.679
NbSi2,176.089,173.942,175.016
Al2W,159.785,157.643,158.714
WN2,101.25,100.66,100.955
CdTe,39.319,38.85,39.084
Zr3O,132.969,132.936,132.953
Fe3C,201.881,201.768,201.825
Fe3N,164.197,343.349,253.773
Ni3N,201.934,201.925,201.929
Al5W,126.67,126.136,126.403
Al5Mo,120.262,119.671,119.966
ReO3,160.982,155.766,158.374
Mg3Au,57.462,57.453,57.457
TcRu,307.117,305.033,306.075
RuRh,282.341,282.023,282.182
ReOs,386.241,385.54,385.891
OsRu,355.921,355.38,355.651
IrOs,374.867,374.149,374.508
MoN,350.746,346.222,348.484
TaN,338.756,337.201,337.979
ZrTe,97.022,91.25,94.136
GaSe,24.268,4.002,14.135
NbS2,19.647,1.777,10.712
WC,381.324,379.092,380.208
MoP,223.201,215.455,219.328
NbS,179.891,176.403,178.147
MoC,351.796,347.205,349.501
Al2O3,85.72,-0.343,42.688
NbN,313.598,311.533,312.566
LiPd,81.566,78.058,79.812
CdS,28.071,0.33,14.2
LiIr,155.22,128.352,141.786
C3N4,173.302,8.094,90.698
NbSe2,35.646,5.451,20.549
NbSe2,38.131,15.914,27.022
Mo2C,226.044,225.792,225.918
LiRh,112.163,100.478,106.321
BN,200.391,4.415,102.403
NbSe2,33.191,10.588,21.889
OsC,390.149,378.874,384.511
TiO,235.712,234.202,234.957
AlSn,49.883,48.225,49.054
YTe,60.257,58.085,59.171
TbTe,61.543,59.26,60.402
YZr,62.36,62.052,62.206
SnPb,44.254,44.208,44.231
SmBr,46.196,46.008,46.102
SiMo,204.669,193.384,199.027
ScNb,102.611,102.522,102.567
FeRe,319.922,319.406,319.664
IrRu,329.313,328.931,329.122
Re3N,390.212,386.151,388.181
NaCu,33.528,32.915,33.222
HgOs,189.954,187.609,188.781
TbZr,60.318,59.005,59.661
TmZr,67.098,67.073,67.086
YbTa,73.45,73.296,73.373
TbSc,45.101,45.095,45.098
NbTe,121.755,115.172,118.463
HfZr,101.466,101.269,101.368
WN,376.541,373.799,375.17
BOs,356.469,352.805,354.637
YN,142.037,140.931,141.484
TcN,340.865,331.286,336.076
WN2,360.983,343.247,352.115
SiPt2,206.444,203.623,205.034
Co2As,183.708,182.659,183.184
Lu8Te,49.89,49.865,49.878
TaN,306.824,305.785,306.305
Co2P,223.056,234.974,229.015
CaP,52.802,52.748,52.775
Li2Sb,33.969,33.906,33.938
Mn2P,193.835,193.262,193.549
GePt2,177.342,175.513,176.427
Ni2P,191.973,190.051,191.012
Na2O2,49.935,49.798,49.866
U3O8,164.596,162.74,163.668
Th3Pd5,81.25,77.881,79.566
Mg2In,32.647,-20.36,6.144
Yb3Si5,52.433,52.405,52.419
NaS,26.858,26.857,26.857
GePd2,155.208,150.311,152.76
Mg2Tl,35.616,35.566,35.591
BaI2,21.464,21.084,21.274
GaAg2,82.709,82.514,82.611
SiPd2,178.903,176.052,177.478
Yb3Ge5,44.175,43.492,43.833
Fe2P,219.1,218.97,219.035
SrP,44.78,44.719,44.749
Li5Mg,17.412,17.412,17.412
CaAs,46.169,46.098,46.134
RbSe,13.45,12.256,12.853
MgCd2,43.177,42.782,42.98
MgPd5,140.077,140.023,140.05
AsCl3,1.077,0.037,0.557
Li3P7,24.431,23.94,24.186
TeF4,12.184,11.444,11.814
Ag2Se,58.451,54.451,56.451
NaP,29.172,28.923,29.048
GeF2,8.866,7.702,8.284
Nb2O5,56.274,54.292,55.283
TeO2,21.208,20.957,21.082
Mg2Ga,45.997,45.497,45.747
LiC6,241.874,58.496,150.185
ZrTi2,106.116,106.085,106.1
CaC2,191.023,180.624,185.823
CaB2,121.589,121.289,121.439
BeB2,203.115,179.561,191.338
CeSe2,-57.973,-447.458,-252.716
SmB2,141.422,140.211,140.817
B2W,324.399,319.314,321.856
PuSi2,101.649,87.591,94.62
LiC12,242.748,37.818,140.283
ThAu2,113.252,101.591,107.422
ErPt5,190.143,189.41,189.776
Hf4Al3,116.507,116.177,116.342
PrPt5,181.805,181.19,181.498
SmNi5,112.635,-485.249,-186.307
LuSi2,90.491,87.57,89.031
TaB2,304.206,302.122,303.164
BaHg2,25.563,20.954,23.258
ScBe5,108.702,108.551,108.626
TiBe12,122.116,122.095,122.106
ZrBe5,126.4,126.38,126.39
CaHg2,41.01,35.73,38.37
DyCd2,58.569,55.568,57.069
HoCd2,58.076,56.078,57.077
TbCu5,110.068,109.206,109.637
DyHg2,65.52,60.861,63.191
ErHg2,67.236,65.221,66.229
NdFe5,105.102,99.724,102.413
YFe5,81.991,157.373,119.682
NdCu5,102.286,101.477,101.881
TiB2,256.596,251.843,254.22
HoHg2,66.142,61.793,63.968
NaHg2,19.877,17.66,18.769
NdHg2,59.666,51.376,55.521
SrHg2,32.314,28.083,30.199
TmNi5,155.554,154.951,155.253
TlPt,71.063,53.536,62.299
TbRh5,179.952,178.225,179.088
YRh5,179.629,177.869,178.749
DyNi5,152.237,151.884,152.06
CaPd5,115.704,114.476,115.09
TbCo5,-131.795,-5880.964,-3006.379
LaCd2,47.782,42.745,45.263
AgB2,153.167,136.579,144.873
UAu2,114.071,108.122,111.096
RbAu5,77.848,66.143,71.996
ThCd2,66.817,65.977,66.397
BaGa2,36.155,35.684,35.919
ZrBe2,118.573,118.186,118.38
HoGa2,78.746,69.712,74.229
SrPd5,107.367,105.234,106.301
PrZn5,74.012,73.546,73.779
Zr4Al3,107.698,107.632,107.665
CaSi2,55.148,52.538,53.843
YCd2,57.592,53.307,55.449
YbGa2,52.008,40.958,46.483
ThCu2,97.108,91.933,94.521
SmCo5,-126.164,-1245.651,-685.907
ZrB2,238.244,237.283,237.763
VB2,286.989,280.61,283.799
TaN,299.972,278.098,289.035
UB2,212.025,209.669,210.847
TbSi2,86.506,85.152,85.829
YB2,163.076,163.072,163.074
HoNi5,149.715,149.196,149.455
SmFe5,98.078,86.161,92.119
ThNi5,155.39,152.777,154.083
NbAu2,176.908,176.797,176.852
YbCu5,99.13,96.902,98.016
YbSi2,58.213,55.01,56.612
U2Ti,131.1,130.331,130.716
LaCo5,283.572,1289.921,786.747
CaZn5,60.234,59.132,59.683
HoSi2,88.836,86.972,87.904
UHg2,72.63,72.241,72.435
ErB2,171.53,171.485,171.507
BaAg5,54.035,50.515,52.275
SrGa2,42.438,40.036,41.237
SrAu5,90.714,90.319,90.516
LaPt5,178.934,177.725,178.329
CaCu5,91.186,89.373,90.279
CeNi5,150.812,141.882,146.347
YGa2,76.824,70.562,73.693
GdGa2,86.955,81.817,84.386
EuSi2,65.164,58.442,61.803
InNi,102.702,102.627,102.664
HfB2,253.066,251.541,252.303
DyGa2,78.305,70.14,74.223
GdSi2,101.703,101.107,101.405
HfBe5,130.988,130.924,130.956
LaCu2,69.447,65.173,67.31
CoSn,126.108,124.98,125.544
DyB2,167.705,167.698,167.701
UGa2,86.787,79.422,83.105
GdCd2,48.416,-114.034,-32.809
EuGa2,50.874,41.303,46.089
PuGa2,75.225,74.951,75.088
FeSn,96.023,94.336,95.179
ErSi2,89.124,86.761,87.942
YNi5,147.648,147.055,147.351
Li2Pt,71.575,62.361,66.968
ThNi2,128.972,318.779,223.876
FeGe,154.86,149.945,152.403
Li3N,51.992,51.977,51.984
ScB2,192.353,189.907,191.13
HoB2,168.396,168.389,168.393
SmCu5,105.315,104.541,104.928
LaNi5,121.263,107.241,114.252
MoN,202.113,278.177,240.145
PrNi5,139.794,139.056,139.425
SrAg5,61.358,60.271,60.814
ErGa2,79.266,69.455,74.361
LaZn5,70.22,69.843,70.032
HoCo5,425.921,328.361,377.141
PrCu5,100.176,99.436,99.806
NdGa2,72.327,68.027,70.177
DyCo5,211.849,1536.107,873.978
HfBe2,127.608,127.393,127.5
YSi2,86.185,84.618,85.401
BaPd5,100.65,98.008,99.329
YbNi5,133.132,128.879,131.006
TbGa2,77.324,69.712,73.518
ThFe5,118.298,117.406,117.852
ErCo5,-720.844,1152.51,215.833
YCu5,108.759,108.141,108.45
HoFe5,124.741,120.738,122.739
YCo5,186.137,154.819,170.478
PrCo5,-332.615,-1144.953,-738.784
ScSi2,96.747,91.612,94.18
BaAu2,48.514,40.813,44.664
BaAu5,83.217,77.279,80.248
TlBi2,40.636,40.481,40.558
CaPt5,169.017,166.755,167.886
SmCd2,55.755,51.101,53.428
TbCd2,56.794,52.819,54.807
CeHg2,65.217,63.135,64.176
CeIr5,234.381,228.862,231.621
HoCu5,90.566,142.886,116.726
DyRh5,181.311,179.547,180.429
YHg2,65.8,59.254,62.527
LaPd5,126.039,125.978,126.008
NdZn5,75.497,74.906,75.202
TbNi5,143.523,143.149,143.336
YZn5,78.52,78.092,78.306
ThAg2,85.295,82.581,83.938
ThIr5,192.24,1156.179,674.209
CrB2,263.508,255.897,259.702
GdB2,153.875,153.057,153.466
NbB2,287.537,285.587,286.562
SmGa2,74.609,69.094,71.852
EuAg5,65.14,65.057,65.098
CePt5,153.413,735.797,444.605
SmZn5,76.571,76.074,76.323
NdAg2,64.418,52.521,58.469
DyFe5,120.617,115.656,118.137
Fe2Ge,127.447,127.034,127.241
PrAg2,62.28,47.923,55.102
NdCo5,-451.309,-5350.547,-2900.928
2-Feb,292.841,261.033,276.937
ErZn5,80.467,80.082,80.275
TaN,235.588,235.666,235.627
ScNi5,159.627,159.135,159.381
YbHg2,43.387,35.067,39.227
SrPt5,161.169,155.678,158.423
In2Bi,34.703,33.268,33.986
ZnI2,12.713,1.442,7.077
BaSn5,36.905,34.955,35.93
Th2Cu,58.755,71.385,65.07
PuB2,124.683,116.273,120.478
MnB2,262.043,244.908,253.476
SrZn5,52.946,51.606,52.276
PrGa2,70.914,67.207,69.061
ThAl2,89.305,84.232,86.769
Ti3Ga,91.885,88.977,90.431
Li2Pd,52.42,48.977,50.698
ThSi2,106.005,105.175,105.59
MgB2,151.6,143.268,147.434
BaSi2,51.768,51.602,51.685
TmSi2,90.15,88.763,89.456
CaNi5,126.465,103.677,115.071
Nd2O3,102.086,94.364,98.225
TmB2,175.11,174.904,175.007
ThCo5,114.632,4695.11,2404.871
BaPt5,150.943,144.526,147.734
ErNi5,151.9,151.572,151.736
CeCd2,52.189,42.486,47.338
AlB2,196.75,183.919,190.335
B2Mo,305.194,301.658,303.426
TbB2,160.34,160.272,160.306
OsN2,249.249,165.604,207.427
USi2,122.842,118.737,120.789
SrMg5,29.067,28.826,28.947
AlFe,90.233,90.119,90.176
AlFe2,147.959,147.955,147.957
CaGa2,48.763,26.457,37.61
DySi2,87.88,86.223,87.052
Na3N,27.157,27.096,27.127
Ba3N,13.173,11.914,12.544
Dy5Ge3,72.234,69.995,71.114
Mn5Si3,331.881,295.431,313.656
Mg5Hg3,43.472,42.21,42.841
K3N,3.268,2.173,2.72
Er5Ge3,74.924,71.606,73.265
Ca5Sb3,37.839,34.467,36.153
Ho5Si3,76.118,73.942,75.03
Hf5Si3,141.208,140.289,140.749
Ta5N6,290.395,547.386,418.89
Pr5Ge3,58.027,55.875,56.951
Sc5Ge3,85.966,83.598,84.782
Mg3Pt,69.598,69.595,69.596
Mg3Pd,48.612,104.357,76.484
LaF3,101.426,100.955,101.191
Mg3Rh,65.603,65.582,65.593
Mg3Ir,75.815,75.783,75.799
Cu3P,124.081,123.983,124.032
WS,178.414,174.971,176.693
BP,162.181,162.14,162.161
MgSe,45.009,44.932,44.971
GaSb,44.723,44.722,44.722
AlSb,49.339,49.319,49.329
ZnS,69.073,69.061,69.067
MgTe,33.954,33.954,33.954
CdSe,44.38,44.379,44.379
Re7B3,362.238,362.08,362.159
SiC,213.334,213.328,213.331
CdTe,34.731,34.722,34.727
CdO,92.998,90.753,91.875
ZrN,172.371,286.372,229.371
Fe7C3,241.13,239.208,240.169
ZnO,128.255,128.079,128.167
InN,122.028,121.914,121.971
AgI,25.512,25.489,25.5
CuH,105.844,105.589,105.717
CrH,206.429,206.424,206.427
BeO,208.037,208.037,208.037
MnS,60.471,60.311,60.391
BN,373.495,373.476,373.485
CdBr2,11.953,3.066,7.509
MoN,336.999,328.95,332.975
ZnSe,56.285,56.243,56.264
MgO,114.172,107.229,110.7
ZnS,69.101,69.058,69.08
ZnS,68.977,68.975,68.976
LaN,89.594,83.359,86.477
PbI2,2.284,0.486,1.385
SiC,213.06,213.058,213.059
SiC,213.191,213.186,213.188
CuI,38.622,38.514,38.568
Si3Ir,115.296,113.183,114.239
NbCo3,200.821,198.91,199.865
LiI,14.866,14.853,14.86
AlN,195.038,194.202,194.62
CdS,53.117,53.115,53.116
DySe,49.874,40.008,44.941
SiC,213.573,213.553,213.563
SiC,213.12,213.118,213.119
MgO,115.633,115.453,115.543
TaSe2,41.788,3.845,22.817
GaN,172.144,172.144,172.144
BrCl,2.204,1.413,1.808
AcN,79.844,75.561,77.703
AlP,82.625,82.615,82.62
AlAs,67.21,67.195,67.203
GaP,76.265,76.235,76.25
GaAs,60.757,60.743,60.75
ZnTe,42.56,42.532,42.546
InP,59.24,59.226,59.233
ZnP,68.165,57.265,62.715
ZnN,131.073,129.554,130.313
WN,309.576,287.531,298.554
PbN,77.314,75.997,76.656
NiN,212.172,209.258,210.715
RuI,71.184,12.739,41.961
ReBr,148.253,143.372,145.813
LiBr,19.465,19.456,19.461
SiB,133.361,118.501,125.931
SiGe,73.133,73.111,73.122
BAs,132.174,132.149,132.161
BC,283.924,264.171,274.047
ZnS,69.012,69.004,69.008
NbN,234.172,214.755,224.464
MoN,275.165,242.455,258.81
MnSe,51.31,51.29,51.3
IrC,328.287,318.777,323.532
TcB,304.285,301.643,302.964
RuC,340.989,333.839,337.414
ReN2,355.034,310.168,332.601
ReC2,356.957,339.997,348.477
PtN2,162.929,16.448,89.688
OsC2,368.76,346.334,357.547
CdN,100.725,100.142,100.433
MgO,139.928,138.484,139.206
ReN,376.924,375.171,376.048
ReC,413.491,408.543,411.017
ZrN,218.105,216.561,217.333
Tc3N,333.206,329.069,331.138
VN,336.359,331.646,334.002
TiS,141.502,137.884,139.693
CrC,340.772,332.309,336.54
MoS2,20.733,0.637,10.685
MoSe2,16.787,1.737,9.262
WSe2,17.865,0.582,9.224
WS2,36.934,1.591,19.263
MoSe2,26.519,1.288,13.904
MoS2,34.13,0.084,17.107
CeMg,36.137,35.797,35.967
Ca2Mg,19.784,19.308,19.546
MgCd,40.966,39.242,40.104
CaZn,26.749,25.775,26.262
CaMg,22.057,21.122,21.589
MgAl,50.931,45.355,48.143
Mg3Cd,38.775,38.706,38.741
MgBi,40.066,36.876,38.471
Ca5Mg,18.174,17.953,18.063
Mg5Cd,38.095,37.984,38.04
LiPt,120.132,106.753,113.442
CrN,359.813,354.533,357.173
Sc5Ga3,71.66,69.169,70.414
Sc5Sn3,73.012,71.537,72.275
Y5Ge3,71.274,68.827,70.05
Tb5Si3,73.311,81.727,77.519
Ti5Sn3,107.06,106.168,106.614
Ti5Si3,140.588,138.995,139.791
Hf5Sn3,114.117,113.634,113.876
ZrCl3,8.478,1.278,4.878
TiI3,3,1.074,2.037
ZrBr3,7.722,2.897,5.309
ZrI3,6.01,1.715,3.862
Hf5Al3,112.605,111.147,111.876
Tb5Ge3,58.234,-32.193,13.02
Zr5Sb3,105.177,108.291,106.734
Ba5Bi3,18.781,-5.052,6.865
Ta5Ga3,175.076,179.253,177.165
Fe5Si3,178.398,173.265,175.831
Nd5Sn3,54.886,53.059,53.972
Hf5Sn4,111.118,111.117,111.118
Zr5Sn4,104.184,104.133,104.158
Y5Sn3,63.222,61.516,62.369
Nb5Si3,185.689,185.523,185.606
HfI3,6.605,5.052,5.829
Zr5Sb4,106.794,106.769,106.781
V5Si3,183.551,191.656,187.603
NbI3,6.321,0.683,3.502
TiCl3,11.551,1.69,6.621
Sc5Si3,89.069,86.459,87.764
Hf2S,135.193,132.421,133.807
GaTe,18.589,5.249,11.919
LiB,83.425,58.132,70.778
ScTe,64.27,60.958,62.614
TiSe,107.03,103.653,105.341
NbS2,44.596,7.63,26.113
TiAs,118.433,112.052,115.242
HW,295.67,295.427,295.549
GaN,96.469,3.565,50.017
ErH,67.419,67.378,67.398
CrH,202.372,201.445,201.908
CdN,102.736,100.329,101.532
BiPd,89.647,89.64,89.644
BaO,67.346,67.052,67.199
BeSe,88.738,88.733,88.735
SbIr,161.462,160.048,160.755
VS2,44.999,7.734,26.366
ZrMn2,168.2,147.754,157.977
ZrB,159.888,159.716,159.802
ZrC,217.754,217.056,217.405
VN,328.813,318.27,323.541
YN,146.333,145.834,146.084
ZrN,227.389,223.911,225.65
InCu,69.047,68.201,68.624
CeO2,177.983,121.302,149.642
TeIr,145.157,143.576,144.366
Mg2Ge,48.622,48.545,48.583
MoS2,50.906,3.187,27.047
OsC2,370.888,352.585,361.737
OsN2,315.962,306.355,311.159
Re2N,392.627,381.667,387.147
ReC2,360.291,337.246,348.768
TaN2,296.478,280.699,288.589
TcB2,314.676,304.841,309.759
MnSe,56.773,54.453,55.613
Co3H,215.864,215.703,215.784
Cr3Co,262.366,257.496,259.931
VTe,62.682,61.45,62.066
Mg3Bi,32.307,46.601,39.454
MgAl3,61.062,61.352,61.207
CaZn,18.849,18.322,18.586
CaZn3,44,38.894,41.447
Ca3Zn,20.672,20.664,20.668
CaMg3,29.072,28.937,29.005
CuSn,76.072,76.066,76.069
BiRh,112.206,111.789,111.998
MoN,354.081,346.915,350.498
AuSe,88.879,88.483,88.681
Si3Pt2,162.207,160.382,161.294
FeTe,62.091,60.909,61.5
WN2,362.987,344.125,353.556
CaCd2,39.934,39.878,39.906
MoN,353.035,349.432,351.233
B3Os2,345.289,330.905,338.097
FeSe,78.719,78.423,78.571
ScFe2,106.998,-37.973,34.513
Fe2Mo,232.373,226.327,229.35
VP,179.138,159.512,169.325
AlAs,82.053,81.95,82.001
Sc2Al,70.61,70.131,70.371
YAl3,44.973,19.495,32.234
MgZn2,63.358,63.182,63.27
Mg3Au,45.991,40.996,43.494
MnBe2,159.655,-711.207,-275.776
Be2Re,241.546,241.533,241.539
Be2V,158.045,158.011,158.028
Be2W,217.897,217.896,217.897
CaGa2,47.973,44.899,46.436
ZrP,135.947,134.721,135.334
Na3As,22.244,22.231,22.238
Co3Mo,289.004,277.285,283.145
HfMn2,156.609,558.756,357.683
HfPd3,178.958,178.957,178.957
HfPt3,230.021,230.016,230.018
MoIr3,337.214,336.792,337.003
YMg2,42.792,42.791,42.792
ScRe2,226.168,226.145,226.157
BaNa2,8.589,8.586,8.587
ErMn2,-42657.663,97.268,-21280.198
Re3Rh,330.507,327.487,328.997
MgIr2,197.472,197.207,197.34
ScFe2,129.998,127.685,128.842
Nd2Co7,102.215,-4100.339,-1999.062
CuAs,106.438,105.631,106.034
ZrRe2,252.923,252.922,252.922
InCu2,100.626,100.676,100.651
FeN,295.875,290.703,293.289
VS,134.456,125.26,129.858
Lu2In,58.681,58.072,58.376
PrAl3,66.405,65.296,65.851
Pr2Tl,44.23,43.893,44.062
HfAl2,119.553,119.474,119.513
Mn2Nb,223.713,223.235,223.474
TaMn2,230,1015.947,622.974
CoS,165.159,165.063,165.111
ThMn2,41.559,142.922,92.241
Sr2Si,31.92,28.954,30.437
ThAl3,85.62,85.571,85.595
Cu3Sn,107.833,105.123,106.478
Ca3N2,68.472,45.246,56.859
PtN,234.624,117.585,176.104
AlN,208.081,201.551,204.816
ZrTe,90.212,86.694,88.453
CaZn2,47.027,46.88,46.953
SrZn2,36.677,35.949,36.313
ScZn2,81.142,81.113,81.128
Cs2Pt,14.1,11.136,12.618
B3Ru2,305.703,294.714,300.208
TeO3,42.375,11.304,26.839
K3As,12.83,12.829,12.83
TiNi3,189.934,189.843,189.888
Zn3N2,133.43,131.438,132.434
NaSe,22.131,21.731,21.931
CoAs,161.238,161.04,161.139
NbN,301.184,296.795,298.99
TiCr2,199.502,199.313,199.407
Ni2Ge,174.857,172.448,173.653
Na3P,24.791,24.772,24.781
MoSe2,37.668,-0.174,18.747
CrSb,73.93,73.76,73.845
NdAl3,67.772,65.934,66.853
ThRe2,194.394,194.376,194.385
Co2Ge,210.062,207.295,208.679
Be2Mo,197.618,197.577,197.598
CdCu2,100.945,100.926,100.935