formula,bulk_modulus_voigt,bulk_modulus_reuss,bulk_modulus_vrh
ScOs3,258.846,258.846,258.846
HgBi3,49.206,49.206,49.206
TmPd3,132.296,132.296,132.296
Ge2O3,178.568,178.568,178.568
K3In,6.339,6.339,6.339
Na3Tl,11.861,11.861,11.861
K3Cd,5.074,5.074,5.074
Ga3B,65.049,65.049,65.049
Ga3Bi,43.085,43.085,43.085
Pa3Zn,93.69,93.69,93.69
BeAu3,140.648,140.648,140.648
Al3Tl,49.964,49.964,49.964
Al3Zn,78.655,78.655,78.655
Be3Fe,151.52,151.52,151.52
Al3Ga,61.751,61.751,61.751
Er3As,56.983,56.983,56.983
Cr3Cu,220.871,220.871,220.871
BeAg3,103.296,103.296,103.296
TmCu,74.896,74.896,74.896
Ag3Ge,83.095,83.095,83.095
CoHg3,63.448,63.448,63.448
AcEr3,37.45,37.45,37.45
Ag3Hg,79.37,79.37,79.37
FeCl,41.143,41.143,41.143
CeZn,35.292,35.292,35.292
ZnCu,116.179,116.179,116.179
YC,119.989,119.989,119.989
YSb,62.392,62.392,62.392
ThC,134.244,134.244,134.244
TiN,258.929,258.929,258.929
TiRu3,247.859,247.859,247.859
TiAl3,102.749,102.749,102.749
NbNi3,198.862,198.862,198.862
Fe3Ni,152.94,152.94,152.94
Pd3N,133.636,133.636,133.636
Pd3Au,159.176,159.176,159.176
Nb3Ni,187.032,187.032,187.032
ZnN,157.703,157.703,157.703
YTi,48.406,48.406,48.406
Mo3Ir,282.393,282.393,282.393
Zr3Au,117.118,117.118,117.118
Ti3As,126.897,126.897,126.897
V3Ge,184.157,184.157,184.157
Cr3Ga,217.363,217.363,217.363
Mo3Pt,265.997,265.997,265.997
Cr3Ru,265.536,265.536,265.536
SiMo3,251.363,251.363,251.363
Nb3Sn,165.507,165.507,165.507
Nb3Ge,171.519,171.519,171.519
AlV3,161.804,161.804,161.804
Ti3Sb,119.611,119.611,119.611
Nb3Ir,218.977,218.977,218.977
Nb3Rh,201.402,201.402,201.402
V3Sb,171.734,171.734,171.734
V3Rh,216.564,216.564,216.564
V3Co,208.895,208.895,208.895
Pt3O4,213.174,213.174,213.174
Cr3Ir,275.177,275.177,275.177
Zr3Hg,105.27,105.27,105.27
V3Pd,194.62,194.62,194.62
Ti3Au,137.742,137.742,137.742
Nb3Os,232.709,232.709,232.709
V3Ir,239.084,239.084,239.084
Nb3Sb,173.865,173.865,173.865
Cr3Ge,229.213,229.213,229.213
V3Sn,162.896,162.896,162.896
V3Pt,219.134,219.134,219.134
V3Ga,168.668,168.668,168.668
Ti3Pt,157.855,157.855,157.855
Ti3Hg,118.442,118.442,118.442
UH3,108.814,108.814,108.814
V3Si,192.13,192.13,192.13
AlMo3,224.498,224.498,224.498
Nb3Pt,203.6,203.6,203.6
Nb3Ga,166.129,166.129,166.129
Nb3Au,184.705,184.705,184.705
V3As,195.129,195.129,195.129
SnMo3,216.251,216.251,216.251
ZrMo3,193.868,193.868,193.868
Ta3Sn,178.536,178.536,178.536
Zr3Sn,103.006,103.006,103.006
Cr3Os,279.999,279.999,279.999
Cr3Pt,242.7,242.7,242.7
Ta3Sb,187.381,187.381,187.381
Ti3Ir,169.105,169.105,169.105
Nb3Bi,158.674,158.674,158.674
Ta3Au,200.678,200.678,200.678
Nb3Tl,154.29,154.29,154.29
Nb3Te,170.078,170.078,170.078
Ba4Si23,74.091,74.091,74.091
VGe3,86.695,86.695,86.695
V3Ni,202.988,202.988,202.988
Cr3Si,246.829,246.829,246.829
Nb3Al,159.438,159.438,159.438
Mo3Os,290.754,290.754,290.754
V3Au,186.748,186.748,186.748
SiO2,275.987,275.987,275.987
Pd2O,129.044,129.044,129.044
Cd3As2,45.328,45.328,45.328
Ag2O3,125.939,125.939,125.939
PtO2,-36511.307,144.117,-18183.595
Cd3P2,53.243,53.243,53.243
Bi2O3,107.798,107.798,107.798
Tb2O3,134.172,134.172,134.172
Ag2O,68.793,68.793,68.793
Cu2O,111.715,111.715,111.715
Pb2O,24.735,24.735,24.735
Y2O3,135.747,135.747,135.747
Sm2O3,126.271,126.271,126.271
Ho2O3,137.137,137.137,137.137
Zn3As2,56.943,56.943,56.943
Zn3P2,70.323,70.323,70.323
Mg3P2,57.133,57.133,57.133
Au2S,66.577,66.577,66.577
BaTe,28.286,28.286,28.286
Ca7Ge,-652384.961,20.462,-326182.249
B12W,238.944,238.944,238.944
MoP,188.798,188.798,188.798
IrC,313.324,313.324,313.324
ScC,153.13,153.13,153.13
VH,198.204,198.204,198.204
GeC,160.406,160.406,160.406
TcN,322.051,322.051,322.051
TcB,282.66,282.66,282.66
SiC,252.718,252.718,252.718
ErH,70.446,70.446,70.446
TlN,107.027,107.027,107.027
RbSb,8.399,8.399,8.399
TeAs,62.239,62.239,62.239
ZrAs,117.397,117.397,117.397
Na3Co,16.754,16.754,16.754
SiO2,267.335,267.335,267.335
CdC,102.325,102.325,102.325
DySb,60.478,60.478,60.478
Fe3Ni,179.994,179.994,179.994
FeNi3,189.838,189.838,189.838
CrNi3,176.094,176.094,176.094
Cr3Ni,155.147,155.147,155.147
Cr3Fe,227.443,227.443,227.443
CeH3,41.701,41.701,41.701
BiI3,34.173,34.173,34.173
AuN,172.053,172.053,172.053
UC2,197.231,197.231,197.231
AgC,133.032,133.032,133.032
TiO2,246.526,246.526,246.526
ThH2,93.607,93.607,93.607
RuO2,284.209,284.209,284.209
MgTe,46.024,46.024,46.024
PdN2,222.571,222.571,222.571
OsN2,334.82,334.82,334.82
MgH2,59.702,131.908,95.805
CdN,119.78,119.78,119.78
CuN,203.809,203.809,203.809
FeN,193.323,193.323,193.323
IrN,293.789,293.789,293.789
FeH,173.813,173.813,173.813
CoN,297.425,297.425,297.425
CrTe,60.543,60.543,60.543
MnSb,69.337,69.337,69.337
NaN,34.757,34.757,34.757
NiN,258.337,258.337,258.337
OsN,328.361,328.361,328.361
PdC,215.846,215.846,215.846
OsC,354.581,354.581,354.581
PaN,221.916,221.916,221.916
PdN,211.396,211.396,211.396
NiC,256.077,256.077,256.077
RhC,280.747,280.747,280.747
ReN,347.345,347.345,347.345
RhN,268.538,268.538,268.538
Ca2Si,36.951,36.951,36.951
Ca2Ge,34.833,34.833,34.833
Ca2Pb,28.076,28.076,28.076
RuN,281.889,281.889,281.889
RuC,321.211,321.211,321.211
SnC,130.966,130.966,130.966
Be2Si,98.66,98.66,98.66
TcC,348.054,348.054,348.054
Cs2Se,11.808,11.808,11.808
CrN2,265.131,265.131,265.131
InSb,48.001,48.001,48.001
K3Sb,13.114,13.114,13.114
Mn3Sn,138.52,138.52,138.52
ErH3,102.113,102.113,102.113
CrFe3,178.768,178.768,178.768
LaH3,82.577,82.577,82.577
MnSn,63.729,63.729,63.729
PtC,259.237,259.237,259.237
LuP,86.563,86.563,86.563
ZrO,197.527,197.527,197.527
K2Sn,8.242,8.242,8.242
NiCl,64.143,64.143,64.143
K2S,18.259,18.259,18.259
CuS,104.037,104.037,104.037
CePd7,143.898,143.898,143.898
Ni3Sb,166.012,166.012,166.012
BaF2,54.086,54.086,54.086
SbPt7,1152425.188,223.355,576324.271
CaZn,26.729,26.729,26.729
CdSe,59.102,59.102,59.102
CsH,8.987,8.987,8.987
RbS,12.355,12.355,12.355
IN,89.968,89.968,89.968
NaS,23.422,23.422,23.422
PrAs,70.29,70.29,70.29
SnSb,51.179,51.179,51.179
LaSb,49.747,49.747,49.747
CeO,148.033,148.033,148.033
ReC,368.671,368.671,368.671
PdO,173.814,173.814,173.814
GeSe,57.611,57.611,57.611
MgSe,60.707,60.707,60.707
HgS,65.862,65.862,65.862
ZrB12,233.379,233.379,233.379
TaC,323.894,323.894,323.894
SrS,48.468,48.468,48.468
ThGe,86.356,86.356,86.356
CeS,87.161,87.161,87.161
TmAs,79.857,79.857,79.857
LuN,178.449,178.449,178.449
LuB12,213.636,213.636,213.636
Li3Au,33.973,33.973,33.973
CdO,127.369,127.369,127.369
Rb2Se,13.717,13.717,13.717
BeSe,87.774,87.774,87.774
LiF,69.649,69.649,69.649
Li3Pd,36.429,36.429,36.429
Ni3Sn,163.22,163.22,163.22
Li2S,40.49,40.49,40.49
PtO,191.199,191.199,191.199
YbZn,27.526,27.526,27.526
ThC,97.603,97.603,97.603
RbF,25.133,25.133,25.133
TbTe,63.35,63.35,63.35
K3Mo,6.71,6.71,6.71
Na3Au,18.942,18.94,18.941
Rb3Mg,4.215,4.215,4.215
Cu2S,91.395,91.395,91.395
HoS,99.911,99.911,99.911
Si3Os,172.928,172.921,172.924
BaSe,35.501,35.501,35.501
CuPt7,229.485,229.485,229.485
MgO,151.45,151.45,151.45
Na2Se,23.909,23.909,23.909
SmS,90.438,90.438,90.438
AlCu3,138.352,138.352,138.352
ErTe,65.928,65.928,65.928
VC,306.705,306.705,306.705
Si2Ru,160.872,160.872,160.872
SnO2,185.31,185.31,185.31
PrO2,122.03,122.03,122.03
WC,365.029,365.029,365.029
MgS,74.305,74.305,74.305
PtN,234.662,234.662,234.662
LaF3,125.291,125.291,125.291
AlN,252.764,252.764,252.764
BaO,68.281,68.281,68.281
ZrN,247.481,247.481,247.481
Mg2Si,54.228,54.228,54.228
Rb2O,22.839,22.839,22.839
MnTe,46.537,46.537,46.537
DyN,163.58,163.58,163.58
CaSe,47.761,47.761,47.761
Be2B,144.862,144.862,144.862
SmSe,76.17,76.17,76.17
NdSe,73.49,73.49,73.49
CuO,179.442,179.442,179.442
ScS,99.417,99.417,99.417
BaS,41.171,41.171,41.171
Al2Pt,129.675,129.675,129.675
Co9S8,582602.304,154.232,291378.268
CaTe,37.042,37.042,37.042
YS,93.243,93.243,93.243
DyMg3,41.005,41.005,41.005
LaTe,54.332,54.332,54.332
TbSe,80.122,80.122,80.122
ZrO2,235.389,235.389,235.389
Be2C,200.504,200.504,200.504
PaAs,116.084,116.084,116.084
NbN,304.766,304.766,304.766
NdSb,58.638,58.638,58.638
UO2,206.152,206.152,206.152
TbS,96.236,96.236,96.236
ErS,99.884,99.884,99.884
Cu2Se,84.187,84.187,84.187
Li3Hg,25.438,25.438,25.438
Al2Pd,109.96,109.96,109.96
CaS,56.852,56.852,56.852
MoN,327.755,327.755,327.755
PrSe,71.671,71.671,71.671
ErAs,79.218,79.218,79.218
YTe,61.724,61.724,61.724
PuN,159.157,158.251,158.704
SmAs,72.532,72.532,72.532
K2Te,13.039,13.039,13.039
NdS,86.452,86.452,86.452
ThSb,79.402,79.402,79.402
ThAs,100.068,100.068,100.068
TmS,102.797,102.797,102.797
UN2,256.399,256.399,256.399
YbTe,39.676,39.676,39.676
ScSe,81.738,81.738,81.738
CsF,21.461,21.461,21.461
PrSb,54.454,54.454,54.454
NdMg3,38.838,38.838,38.838
YZn,52.307,52.307,52.307
BeO,243.273,243.273,243.273
CeMg3,45.536,45.536,45.536
HgTe,45.79,45.79,45.79
YbS,62.187,62.187,62.187
UN,206.53,206.53,206.53
SnS,53.469,53.469,53.469
SnTe,38.189,38.189,38.189
TaO,231.521,231.521,231.521
YbSb,35.232,35.232,35.232
ZrS,132.151,132.151,132.151
SrTe,32.317,32.317,32.317
PuO2,196.245,196.245,196.245
Li2O,78.6,78.6,78.6
TePb,38.461,38.461,38.461
TmN,172.542,172.542,172.542
ErN,169.316,169.316,169.316
Sn2Pt,92.692,92.692,92.692
UP,99.646,99.646,99.646
DyP,87.469,87.469,87.469
PbO2,134.544,134.544,134.544
AlFe3,171.541,171.541,171.541
CeO2,170.992,170.992,170.992
Mn3Si,227.244,227.244,227.244
EuN,109.606,108.652,109.129
InP,73.875,73.875,73.875
HoSb,61.329,61.329,61.329
ScAs,85.701,85.701,85.701
GdMg3,0,0,0
Ca3In,24.386,24.386,24.386
MnS,60.757,59.996,60.377
Fe3Ge,142.782,142.782,142.782
Mg2Pb,34.401,34.401,34.401
Li3Sb,32.535,32.535,32.535
InN,158.992,158.992,158.992
PIr2,275.878,275.878,275.878
Sn2Ir,110.242,110.242,110.242
HfC,239.071,239.071,239.071
YN,159.077,159.077,159.077
TbN,157.952,157.952,157.952
PbS,52.19,70.172,61.181
CrN,-28.194,283.987,127.896
InAs,61.193,61.193,61.193
USe,99.592,99.592,99.592
YSb,57.085,57.085,57.085
CeP,69.44,69.44,69.44
DyTe,64.339,64.339,64.339
SnAs,64.044,64.044,64.044
ThSe,101.246,101.246,101.246
NpAs,79.229,79.229,79.229
ErSb,58.352,58.352,58.352
Fe3Si,210.833,210.833,210.833
PbSe,46.512,46.512,46.512
Ga2Pt,101.898,101.898,101.898
In2Au,53.29,53.29,53.29
ZnO,166.374,166.374,166.374
UB12,244.824,241.493,243.159
In2Pt,91.458,91.458,91.458
UTe,58.849,58.849,58.849
SmSb,55.79,55.79,55.79
Li2Se,33.677,33.677,33.677
NaCl,23.77,23.77,23.77
HoBi,54.739,54.739,54.739
SmBi,52.053,52.053,52.053
PuBi,52.25,52.25,52.25
UBi,71.508,71.508,71.508
KI,10.558,10.558,10.558
LiI,19.889,19.889,19.889
LiCl,32.161,32.161,32.161
DyBi,53.954,53.954,53.954
Si2Ni,141.692,141.692,141.692
NpBi,14.939,14.939,14.939
NaBr,19.491,19.491,19.491
AgI,34.265,34.265,34.265
TbBi,55.237,55.237,55.237
AgCl,41.63,39.49,40.56
AsRh2,189.638,189.638,189.638
LaMg3,37.949,37.949,37.949
PrBi,49.437,49.437,49.437
KCl,16.489,16.489,16.489
SrCl2,33.615,33.615,33.615
Li3Bi,28.2,28.2,28.2
AgBr,38.448,38.121,38.284
TmBi,54.948,54.948,54.948
YBi,53.143,53.143,53.143
ErBi,54.597,54.597,54.597
KBr,13.432,13.432,13.432
LiBr,25.963,25.963,25.963
NaI,15.1,15.1,15.1
CeBi,38.203,38.203,38.203
NdBi,50.357,50.357,50.357
BiF3,132.284,132.284,132.284
Rb3Bi,9.746,9.746,9.746
Mg2Sn,40.919,40.919,40.919
LaS,83.314,83.314,83.314
Na2O,45.868,45.868,45.868
PaO2,206.71,206.71,206.71
TmTe,66.367,66.367,66.367
LiH,36.35,36.35,36.35
HCl,56.966,56.966,56.966
CoSi2,173.636,173.636,173.636
LaP,71.271,71.271,71.271
NaH,23.295,23.295,23.295
CdTe,46.602,46.602,46.602
KH,13.704,13.704,13.704
GdH2,68.537,68.537,68.537
PrH2,68.409,68.409,68.409
NdH2,71.096,71.096,71.096
CdF2,95.332,95.332,95.332
AcH2,55.135,55.135,55.135
DyH2,84.452,84.452,84.452
HoH2,86.522,86.522,86.522
NbH2,179.449,179.449,179.449
ZrH2,132.884,132.884,132.884
TiH2,139.455,139.455,139.455
ErH2,87.63,87.63,87.63
H2S,85.587,85.587,85.587
US,126.337,126.337,126.337
ScH2,95.971,95.971,95.971
CrH,243.317,243.317,243.317
HPd,174.968,174.968,174.968
H2Se,72.754,72.754,72.754
TbO2,142.644,142.644,142.644
YH2,81.498,81.498,81.498
SmH2,75.078,75.078,75.078
DyS,96.9,96.9,96.9
NiH,200.93,200.93,200.93
SrO,84.99,84.99,84.99
RbH,11.395,11.395,11.395
HRh,218.492,218.492,218.492
TaH2,196.872,196.872,196.872
VH2,175.664,175.664,175.664
UC,178.518,178.518,178.518
ErSe,83.657,83.657,83.657
CeN,143.06,143.06,143.06
PrS,84.639,84.639,84.639
TaN,330.533,330.533,330.533
TmSb,62.342,62.342,62.342
Li2Te,26.076,26.076,26.076
TePd3,134.527,134.521,134.524
PrTe,57.203,57.203,57.203
PuAs,71.138,71.138,71.138
LaN,121.33,121.33,121.33
CeSe,93.807,93.807,93.807
PuSb,54.416,54.416,54.416
NpN,151.141,151.141,151.141
InTe,39.529,39.529,39.529
NdAs,71.185,71.185,71.185
CaO,105.841,105.841,105.841
GeTe,48.853,48.853,48.853
NpO2,192.353,192.353,192.353
DyAs,76.57,76.57,76.57
YSe,78.292,78.292,78.292
TbAs,76.698,76.698,76.698
Al2Au,104.282,104.282,104.282
TiO,224.438,224.438,224.438
NbO,227.539,227.539,227.539
SnSe,48.326,48.326,48.326
TbSb,59.906,59.906,59.906
PRh2,223.688,223.688,223.688
PaO,188.867,188.867,188.867
CaF2,80.16,80.16,80.16
MoC,333.899,333.899,333.899
CeAs,62.335,62.335,62.335
SrSe,41.256,41.256,41.256
Ho6Fe23,-26931.125,-42669.262,-34800.193
Na3Be,14.383,14.382,14.383
Rb3Hf,6.057,6.057,6.057
Ga2Au,65.975,65.975,65.975
Na2Te,19.229,19.229,19.229
ZrC,219.051,219.051,219.051
PuC,147.937,147.937,147.937
ScP,90.559,90.559,90.559
TiF2,109.445,109.445,109.445
TmSe,84.968,84.968,84.968
NdP,78.398,78.398,78.398
HfN,270.382,270.382,270.382
GaN,208.803,208.803,208.803
ScN,200.491,200.491,200.491
CeCd3,41.295,41.295,41.295
Tm3V,51.93,51.93,51.93
HoAs,77.463,77.463,77.463
Na3Hg,12.299,12.299,12.299
Ca3Tl,21.746,21.746,21.746
Zr6Co23,174.926,171.971,173.449
Li3Pb,25.566,25.566,25.566
LiPt7,217.916,217.916,217.916
SmMg3,39.515,39.515,39.515
Sr3In,17.296,17.296,17.296
PbF2,67.722,67.722,67.722
BiO2,140.204,140.204,140.204
LiS,39.492,39.492,39.492
Rb3Sb,10.942,10.942,10.942
SmTe,60.983,60.983,60.983
PrN,133.177,133.177,133.177
HfB,172.719,172.719,172.719
Br3N,40.19,40.19,40.19
CdS,71.97,71.97,71.97
CeSb,54.99,54.99,54.99
Mg2Ge,49.429,49.429,49.429
PrMg3,38.445,38.445,38.445
Rb2Te,11.393,11.393,11.393
ZrB,160.149,160.149,160.149
KF,29.839,29.839,29.839
HoSe,82.998,82.998,82.998
SnP,73.018,73.018,73.018
TiN,278.511,278.511,278.511
ThS,118.095,118.095,118.095
EuF2,68.624,68.624,68.624
CeH2,-182.273,-182.273,-182.273
GdAs,78.507,78.507,78.507
GdP,85.387,85.387,85.387
GdS,86.458,86.458,86.458
GdSb,98.6,98.6,98.6
GdSe,97.929,97.929,97.929
LuSb,63.1,63.1,63.1
USb,94.691,94.691,94.691
EuTe,32.56,32.56,32.56
ScSb,65.333,65.333,65.333
HfO2,252.656,252.656,252.656
BiTe,47.617,47.617,47.617
PaC,165.088,165.088,165.088
K3Bi,11.606,11.606,11.606
TlBr,16.051,16.051,16.051
BaCl2,29.053,29.053,29.053
BiSe,56.128,56.128,56.128
WN,356.271,356.271,356.271
TlCl,18.005,18.005,18.005
NdTe,58.456,58.456,58.456
CuBr,51.714,51.714,51.714
ScBi,57.536,57.536,57.536
YCd3,57.047,57.047,57.047
TlI,13.509,13.509,13.509
CsBr,10.316,10.316,10.316
CuCl,56.945,56.945,56.945
CsCl,12.229,12.229,12.229
GdTe,71.741,71.741,71.741
CrC,110.843,110.843,110.843
YbAs,44.634,44.634,44.634
PrP,75.919,75.919,75.919
ZrZn,91.135,91.135,91.135
CsI,8.224,8.224,8.224
NpSe,76.476,76.476,76.476
TiC,251.478,251.478,251.478
YbH2,48.082,48.082,48.082
ThO2,188.295,188.295,188.295
ScO,184.583,184.583,184.583
Zn7Mo,101.103,101.103,101.103
TbP,85.585,85.585,85.585
Na2S,28.189,28.189,28.189
LuS,104.585,104.585,104.585
AlNi3,177.562,177.562,177.562
GaFe3,169.932,169.932,169.932
NaF,46.136,46.136,46.136
NpO,164.957,164.957,164.957
MnN,137.8,137.8,137.8
LaAs,66.566,66.566,66.566
SmP,80.277,80.277,80.277
Cr23C6,-3891229.195,339.406,-1945444.894
TbMg3,40.267,40.267,40.267
Li3Tl,23.258,23.258,23.258
HoP,88.424,88.424,88.424
SmN,145.3,145.3,145.3
PdO2,206.243,206.243,206.243
NdO2,126.323,126.323,126.323
AgF,58.752,58.752,58.752
UO,203.147,203.147,203.147
Al2O,56.23,56.23,56.23
AlO,134.577,134.577,134.577
Rb2S,0,0,0
PuO,46.23,46.23,46.23
DySe,81.802,81.802,81.802
HgF2,86.276,86.276,86.276
SnF3,50.256,50.256,50.256
ThN,176.864,176.864,176.864
Cu3Sn,149.365,149.365,149.365
K2Se,15.851,15.851,15.851
AcH3,69.171,69.171,69.171
PrCd3,53.986,53.986,53.986
PmAg3,-597.859,68.641,-264.609
PmCd3,55.77,55.77,55.77
MnV3,210.529,210.529,210.529
Mn3Ge,195.84,195.84,195.84
NaCd3,28.313,28.313,28.313
HfCu3,136.591,136.591,136.591
YMg3,43.03,43.03,43.03
V3Ru,221.654,221.654,221.654
V3Re,233.519,233.519,233.519
PaAu3,125.869,125.869,125.869
Li3Ag,25.969,24.578,25.274
Ti3Os,160.895,160.895,160.895
LiZn3,56.751,56.751,56.751
V3Os,246.21,246.21,246.21
VFe3,195.459,195.459,195.459
HoMg3,40.634,40.634,40.634
SmCd3,56.236,56.236,56.236
Li3In,24.555,24.555,24.555
Li3Pt,46.406,46.402,46.404
ScTc3,216.144,216.144,216.144
Li3Ge,32.98,32.98,32.98
Li3Cd,22.509,22.509,22.509
SmH3,90.319,90.319,90.319
ScB12,218.18,218.18,218.18
HoN,167.77,167.77,167.77
Na3As,24.248,24.248,24.248
NbC,296.238,296.238,296.238
HoTe,65.126,65.126,65.126
VN,316.753,316.753,316.753
ZrP,135.366,135.366,135.366
ThP,112.228,112.228,112.228
YAs,75.352,75.352,75.352
ZnTe,53.63,53.63,53.63
HgSe,57.045,57.045,57.045
K2O,27.218,27.218,27.218
ZnAs3,72.558,72.558,72.558
ZnCo3,183.266,183.266,183.266
ZnCr3,108.873,108.873,108.873
ZnHg3,18.132,18.132,18.132
ZnSb3,51.452,51.452,51.452
Tl3H,24.583,24.583,24.583
MnSe,44.652,44.652,44.652
Zn6Mo,91.897,91.897,91.897
V3Mo,203.583,203.583,203.583
Tl3Si,34.443,34.443,34.443
Tc3H,238.733,238.733,238.733
Sm3V,42.339,42.339,42.339
Si3P,96.364,96.364,96.364
Si3Ge,83.175,83.175,83.175
Si3As,82.602,82.602,82.602
Si3F,98.224,98.224,98.224
SiBi3,52.214,52.214,52.214
GdF3,136.043,136.043,136.043
ScH3,110.897,110.897,110.897
ScCu3,102.363,102.363,102.363
ScZn3,78.798,78.798,78.798
Mn3Al,179.795,179.795,179.795
K3Zr,6.941,6.941,6.941
SbPt3,178.413,178.413,178.413
SbPd3,143.223,143.223,143.223
K3W,8.076,8.076,8.076
K3Si,9.969,9.969,9.969
FeAg3,99.882,99.882,99.882
K3Sc,23.854,23.854,23.854
K3Sn,9.269,9.269,9.269
K3Sr,4.901,4.901,4.901
Hg3F,40.994,40.994,40.994
H3Pb,51.75,51.75,51.75
LiHg3,22.639,22.639,22.639
LiCd3,41.518,41.518,41.518
Na3Al,14.872,14.872,14.872
Re3Pb,244.499,244.499,244.499
Re3Sb,259.398,259.398,259.398
Re3C,297.264,297.264,297.264
Re3F,277.045,277.045,277.045
ReP3,185.152,185.152,185.152
K3Tl,5.319,5.319,5.319
Rb3V,5.686,5.686,5.686
Rb3Sn,7.046,7.046,7.046
Rb3Ru,3.293,3.293,3.293
Rb3Pb,6.311,6.311,6.311
Rb3Os,6.657,6.657,6.657
Rb3Na,3.363,3.363,3.363
Rb3Mo,5.203,5.203,5.203
Rb3Ir,12.992,12.992,12.992
Rb3Li,3.577,3.577,3.577
Rb3Hg,3.088,3.088,3.088
Rb3Cd,3.57,3.57,3.57
Rb3Co,9.437,9.437,9.437
RbTl3,16.913,16.913,16.913
RbCa3,11.666,11.666,11.666
InSb3,53.357,53.357,53.357
Mo3H,201.133,201.133,201.133
Mo3I,178.725,178.725,178.725
Li3Ga,23.335,23.13,23.233
Li3C,54.763,54.763,54.763
LaAu3,80.791,80.791,80.791
Ge3Sb,60.054,60.054,60.054
Li3Mg,18.913,18.913,18.913
Li3Nd,20.824,20.824,20.824
Li3Pr,20.736,20.736,20.736
Li3Tc,34.091,34.091,34.091
NaEr3,33.418,33.418,33.418
Li3Zn,23.55,23.55,23.55
NaTm3,33.868,33.868,33.868
NaRe3,236.918,236.918,236.918
Na3Ca,9.908,9.908,9.908
NaTc3,186.78,186.78,186.78
NaTa3,132.843,132.843,132.843
NaMo3,165.314,165.314,165.314
NaNb3,116.717,116.717,116.717
Na3Bi,19.11,19.11,19.11
Na3C,22.193,22.193,22.193
Li3Th,26.408,26.408,26.408
MgRe3,261.655,261.655,261.655
Li3Sm,21.078,21.078,21.078
Ta3Ru,225.21,225.21,225.21
Nb3Ru,208.891,208.891,208.891
Mg3Co,59.866,59.866,59.866
Mg3Mn,46.208,46.208,46.208
Mg3Pa,48.729,48.729,48.729
Si3H,99.012,99.012,99.012
Si3Se,70.402,70.402,70.402
Si3Ru,153.635,153.635,153.635
SmRe3,218.927,218.927,218.927
SrH3,45.849,45.849,45.849
SnAs3,67.234,67.234,67.234
SnTe3,49.767,49.767,49.767
Sn3B,53.468,53.468,53.468
TmO3,158.954,158.954,158.954
TaW3,275.924,275.924,275.924
RbYb3,10.064,10.064,10.064
Yb3Zr,25.447,25.447,25.447
Yb3Mn,19.156,19.156,19.156
Yb3Os,45.886,45.88,45.883
Yb3Mg,19.265,19.265,19.265
Yb3Re,30.077,30.077,30.077
ZnSn3,47.267,47.267,47.267
SrF2,65.882,65.882,65.882
UCr3,177.103,177.103,177.103
Sr3Yb,12.899,12.899,12.899
PbAu3,84.473,84.473,84.473
Na3Re,18.675,18.675,18.675
Na3Tl,11.581,11.581,11.581
GaSi3,80.144,80.144,80.144
K3Hg,4.365,4.365,4.365
Ga3Au,62.408,62.408,62.408
AcMg3,34.101,34.101,34.101
Ag3Ge,82.772,82.772,82.772
Al2Cu,96.231,96.231,96.231
GeSb,60.206,60.206,60.206
YP,85.85,85.85,85.85
BaC,37.274,37.274,37.274
YC,124.296,124.296,124.296
Ti3Sn,113.274,113.274,113.274
Ti3Si,131.4,131.4,131.4