formula,bulk_modulus_voigt,bulk_modulus_reuss,bulk_modulus_vrh
ZrAs,118.518,117.456,117.987
HfRe2,262.427,262.427,262.427
Tb2Tl,52.731,52.267,52.499
SbPd,104.839,104.807,104.823
ReB2,343.065,332.401,337.733
SnAu,73.078,72.651,72.865
Al5Rh2,131.338,131.023,131.181
WSe2,42.737,3.679,23.208
TiAs,118.951,118.279,118.615
Ti3Al,114.065,113.856,113.96
ZrCr2,-189885595.1,203.286,-94942695.89
BaMg2,21.706,21.696,21.701
GaSe,24.88,6.699,15.789
TiMn2,193.082,170.864,181.973
Al5Co2,124.136,124.122,124.129
Sm2In,48.95,48.542,48.746
TaS2,52.607,10.07,31.338
SnPt,128.544,126.192,127.368
SnIr,155.771,152.505,154.138
Ni3Sn,161.923,161.752,161.837
NiTe,116.153,112.738,114.446
Ti6Sn5,226760.075,126.459,113443.267
ScMn2,173.388,172.995,173.191
Fe2Ge,141.912,141.764,141.838
Mn2Ge,138.208,137.151,137.679
InSe,16.426,4.149,10.288
FeSn,90.653,90.846,90.749
Ho2In,55.468,55.009,55.238
La2In,40.035,39.743,39.889
Fe2W,262.038,256.886,259.462
Fe3Sn,120.203,113.513,116.858
Ti3Sn,116.028,115.976,116.002
Fe3Ge,166.354,166.106,166.23
InNi2,170.133,168.899,169.516
Y2In,53.934,53.396,53.665
Co3W,271.156,526.039,398.598
TiSb,91.263,89.002,90.133
CrSe,47.744,47.473,47.608
BPt,260.187,259.785,259.986
NbSe2,35.13,7.248,21.189
TmMg2,44.234,44.234,44.234
ThHg2,79.33,75.85,77.59
V3Sn,151.441,152.568,152.004
Be2Fe,154.36,154.324,154.342
Mn3Sn,96.999,90.421,93.71
WS2,53.797,2.812,28.304
Mn2Sn,94.916,93.315,94.115
BiRh,107.757,96.246,102.002
MnBi,49.545,39.538,44.541
Al3Ir,150.878,150.405,150.642
SbCl5,1.335,1.182,1.258
In2Bi,23.196,22.986,23.091
CuBr,40.11,6.748,23.429
Li3N,65.204,65.153,65.179
ZnO,90.699,5.147,47.923
NiAs,117.422,116.018,116.72
Li9Ge4,33.853,33.813,33.833
SrH2,41.804,36.338,39.071
NaS,25.227,24.511,24.869
Mg5Pd2,51.554,73.771,62.662
TbSe,60.988,59.976,60.482
CaMg2,30.093,30.092,30.093
MnH,128.25,123.971,126.111
MoH,212.086,209.458,210.772
TiFe2,166.303,160.661,163.482
GaS,28.129,8.416,18.273
TePb,38.07,36.798,37.434
Zr2Al,104.007,103.768,103.887
SrMg2,25.649,25.631,25.64
FeSb,111.658,110.286,110.972
CoSb,148.363,148.083,148.223
MgNi2,95.482,-2271.641,-1088.079
NbN,314.397,314.394,314.396
ZrAl2,113.629,113.551,113.59
Na3Bi,17.195,17.156,17.175
SiHg3,38.862,5.291,22.077
MoS2,49.636,1.514,25.575
Nd2Tl,45.377,44.9,45.139
SbPt,122.13,121.13,121.63
VSe,83.104,78.709,80.907
Si3Ir,144.601,144.449,144.525
BaCu,21.998,19.089,20.544
BaTl2,26.102,24.377,25.239
Be2Cr,182.573,182.563,182.568
Mg3Cd,40.02,39.924,39.972
MgCd3,43.197,43.142,43.169
ScCd3,61.314,60.987,61.151
TbCd3,56.28,56.065,56.173
Dy2Tl,53.767,53.313,53.54
MgGa2,50.612,48.296,49.454
Ti2Ga,120.36,119.665,120.013
Ti3Ga,118.976,118.636,118.806
ScHg3,63.735,63.308,63.522
YHg3,59.449,59.213,59.331
Mg3Ir,76.941,76.857,76.899
Ir3W,351.058,350.569,350.814
Mg5Rh2,56.861,168.257,112.559
MoRh3,268.97,267.986,268.478
NbZn2,140.662,140.592,140.627
UPd3,1919709.598,-340072.359,789818.62
ZrPd3,170.269,170.267,170.268
Sn3Pt2,102.255,102.118,102.187
Rh3W,283.306,282.375,282.841
Ti2Sn,114.608,114.502,114.555
SrTl2,27.414,26.121,26.768
TiZn2,105.494,105.486,105.49
BaPt,50.418,48.8,49.609
Sm2Tl,48.58,48.112,48.346
VS,166.705,160.721,163.713
MnTe,47.467,46.075,46.771
Si3N4,227.717,223.25,225.484
CoSe,132.775,132.723,132.749
ZrNi3,174.598,172.401,173.5
CuSe,65.772,63.671,64.721
TaSe2,41.749,4.947,23.348
TaSe2,38.23,11.151,24.691
CuS,80.165,78.936,79.551
SiNi2,204.724,201.232,202.978
IrPb,127.814,124.068,125.941
CrS,63.553,61.409,62.481
CaO,86.294,85.823,86.059
TiS,140.376,135.441,137.908
GaS,31.188,8.863,20.025
Li2S,38.985,37.735,38.36
VS2,19.608,-0.419,9.594
TePd,98.016,97.9,97.958
BRh,279.202,273.966,276.584
CeAl3,69.357,60.643,65
LuOs2,188.584,248.827,218.705
ScOs2,237.394,237.156,237.275
ScRu2,189.297,188.622,188.959
TiTe,89.462,82.484,85.973
MoC,337.303,328.682,332.992
TaFe2,230.134,618.237,424.186
YRu2,167.697,166.67,167.183
LiI,20.179,20.158,20.169
ThRh2,146.456,145.12,145.788
MnBi,56.101,56.08,56.091
CrAs,97.115,97.023,97.069
LuRu2,179.059,178.12,178.59
TiCr2,198.438,198.352,198.395
TiSe,115.093,109.82,112.457
NbFe2,215.232,396.209,305.721
TiAs,112.372,111.773,112.073
CaTe,37.078,36.863,36.971
ErRu2,173.921,173.121,173.521
Mg3Pt,69.846,69.802,69.824
VP,154.247,153.613,153.93
NiPb,92.489,91.791,92.14
ZrTe,96.308,91.332,93.82
HfCr2,186.83,186.79,186.81
VSe,63.077,53.654,58.365
B2W,322.358,318.983,320.671
Yb2Sn,36.051,34.703,35.377
TaCo2,256.149,255.189,255.669
Li2Ca,16.063,16.063,16.063
TaN,328.673,326.176,327.425
YOs2,212.453,212.33,212.391
ZrOs2,264.67,264.108,264.389
KNa2,5.821,5.645,5.733
GaNi2,168.35,167.367,167.858
YRe2,203.158,202.976,203.067
HfOs2,275.116,274.821,274.968
TaCr2,239.821,239.805,239.813
CeNi3,-5369773.132,-5562270.024,-5466021.578
TaPd3,201.766,200.82,201.293
MgZn,54.378,54.14,54.259
NiAs,128.859,105.576,117.218
NiS,134.159,134.158,134.158
Te2Mo,29.941,3.947,16.944
Mg5Pd2,51.01,72.983,61.997
MnAs,63.459,60.12,61.789
BN,195.562,3.869,99.716
NbS,180.005,176.296,178.15
NiSe,119.227,118.737,118.982
Mn2Sb,68.984,55.458,62.221
TiP,105.305,104.272,104.788
SiO2,146.02,146.019,146.02
Mg3Hg,42.682,42.573,42.628
Li3P,39.582,39.455,39.519
TiP,139.599,138.571,139.085
TiO,231.891,231.419,231.655
Li3As,34.872,34.746,34.809
NbS2,37.294,6.997,22.146
VSb,91.608,91.586,91.597
MnSb,56.906,56.743,56.824
CoTe,114.482,112.917,113.699
K3P,13.976,13.974,13.975
Rb3As,10.493,10.486,10.489
CrTe,44.137,43.02,43.579
Li3Sb,28.723,28.531,28.627
Na3Sb,19.485,19.439,19.462
BN,190.752,5.059,97.905
PuF3,119.062,118.001,118.532
NiSb,108.461,107.785,108.123
LaF3,109.47,108.899,109.184
Li2O2,72.955,72.346,72.65
Tc3Pd,254.21,251.221,252.716
Tc3Ru,303.552,303.227,303.39
AcI3,4.25,0.852,2.551
Sc3Tc,89.871,89.692,89.781
BPt3,185.96,173.711,179.835
Sc3Al,67.009,66.828,66.919
ScZn3,79.571,78.441,79.006
AcHg3,47.016,46.955,46.985
Re3Pd,299.552,294.623,297.088
Re3Pt,327.476,324.428,325.952
Re3Ni,317.404,316.879,317.142
AcAl3,59.02,58.61,58.815
IrRu3,321.538,321.023,321.281
Ru3W,308.664,308.191,308.427
TaZn2,151.923,151.849,151.886
PmZn3,65.527,64.388,64.957
PrGa3,66.857,66.099,66.478
RbGe3,22.826,15.402,19.114
Tc3Os,325.336,324.966,325.151
PrI3,4.592,0.499,2.546
PaAl3,96.073,95.834,95.953
PaB3,208.76,197.231,202.995
PaPd3,160.138,158.471,159.305
PaZn3,90.576,90.728,90.652
PaSe3,87.761,86.315,87.038
PmAl3,69.142,68.687,68.914
InCl3,9.467,1.284,5.376
PmB3,145.258,144.241,144.75
PmBr3,6.623,1.062,3.842
SmCl3,7.726,0.9,4.313
SmI3,5.04,0.56,2.8
ErCl3,8.403,1.326,4.864
TbI3,5.577,0.698,3.138
PmCu3,79.481,77.189,78.335
PmI3,5.096,0.704,2.9
NdI3,4.988,0.922,2.955
HoI3,5.418,0.344,2.881
HoCl3,8.123,1.444,4.783
MoI3,5.186,1.127,3.156
Mn3Ir,286.039,198.75,242.395
ZrZn3,101.542,101.196,101.369
LaAu3,80.397,74.838,77.617
HfBr3,8.993,1.059,5.026
MgCo2,112.435,110.511,111.473
MgAg3,76.916,76.915,76.915
MgAu3,109.617,109.612,109.614
Mg3Sc,43.213,43.207,43.21
Mg3Tl,34.564,34.555,34.56
Mg3Ag,48.05,47.708,47.879
DyBr3,6.853,0.217,3.535
DyAl3,72.362,71.002,71.682
MnIr3,287.932,287.839,287.886
YbHg3,38.49,38.464,38.477
Co3Pt,211.842,211.764,211.803
Fe3Re,292.434,-2654.833,-1181.2
TmBr3,6.741,-0.524,3.109
LuCl3,8.023,-1.445,3.289
TmI3,5.311,0.161,2.736
ThPt3,175.105,174.393,174.749
UP3,105.622,103.029,104.325
ThGa3,85.694,85.656,85.675
VBr3,8.35,-1.431,3.46
VI3,7.433,6.262,6.847
VIr3,321.154,320.976,321.065
LuI3,5.368,0.331,2.849
YAl3,71.156,69.649,70.402
CoTc3,288.198,287.379,287.788
GaCu3,124.594,124.527,124.561
CoRe3,353.029,352.783,352.906
ErI3,5.562,0.63,3.096
HfZn3,106.995,106.547,106.771
VRh3,251.269,250.809,251.039
Ti3Bi,103.668,103.646,103.657
LuBr3,7.202,-0.255,3.474
AcSi3,64.526,64.483,64.505
ReOs3,395.857,394.907,395.382
SmGa3,69.597,69.05,69.324
TcOs3,377.424,376.604,377.014
RbSn3,13.986,10.853,12.419
TbGa3,71.534,70.868,71.201
Re3Os,374.759,374.32,374.539
Tc3Pt,286.948,285.212,286.08
TbHg3,60.055,59.711,59.883
Cu3Si,144.912,143.718,144.315
TcIr3,342.254,341.741,341.997
TcRu3,309.013,308.165,308.589
Tc3Ni,290.989,282.368,286.678
ReIr3,359.215,358.576,358.896
AcSe3,58.186,53.018,55.602
AcGa3,58.856,58.678,58.767
AcAu3,77.484,72.369,74.927
SmAl3,69.393,68.07,68.731
SmHg3,57.702,57.386,57.544
Er2In,56.247,55.695,55.971
RhSe,139.184,136.877,138.031
HfFe2,171.302,169.862,170.582
LaAl3,62.476,61.451,61.963
ZnPd3,149.877,149.877,149.877
TmMg3,40.83,40.807,40.818
Ac3Yb,-381424.056,49.241,-190687.407
Zn3Cu,93.822,90.98,92.401
YbMg3,28.824,28.756,28.79
TiPt3,233.944,233.852,233.898
LaTb3,35.185,34.742,34.964
Tb3Si,58.235,57.947,58.091
SmMg3,38.809,38.699,38.754
SmLu3,43.36,43.312,43.336
Si3W,139.857,148.362,144.11
Si3Pt,118.016,116.531,117.273
SiSb3,123.289,57.992,90.641
Sc3Cd,59.131,59.105,59.118
ScAu3,118.076,114.953,116.515
NaBi3,33.104,32.721,32.912
NaCd3,27.552,27.505,27.528
Lu3Al,53.836,52.859,53.348
Lu3Ga,53.716,52.353,53.035
NaLi3,11.577,11.564,11.571
NaCo3,39.354,19.938,29.646
LiLa3,24.223,23.437,23.83
Ho3In,49.68,49.148,49.414
Hg3Au,47.599,24.332,35.965
LuMg3,41.174,41.17,41.172
Ho3Lu,44.386,44.36,44.373
NiPd3,174.575,174.184,174.379
Ho3Mg,41.053,41.007,41.03
NdDy3,38.361,38.107,38.234
OsRu3,331.586,330.805,331.196
RuRh3,267.637,267.392,267.514
Rh3Se,195.336,194.647,194.991
Re3Tc,348.979,348.813,348.896
Re3Sn,261.852,260.744,261.298
Re2C,402.964,398.729,400.846
ReH3,175.531,150.386,162.958
Re3Ru,351.011,350.314,350.663
LiSi3,40.831,40.256,40.544
LiTm3,36.417,36.41,36.414
PrTm3,40.736,40.67,40.703
PrHo3,39.784,39.719,39.752
MoRu3,295.941,295.579,295.76
NdSc3,44.497,43.852,44.174
Nd3Zr,42.222,41.411,41.816
NiAu3,133.766,129.706,131.736
Ni3Au,174.506,172.601,173.553
Ni3Sb,161.57,161.147,161.359
Li3Ag,26.901,26.339,26.62
Li3Co,46.965,32.492,39.728
Li2Mg,20.433,20.425,20.429
HoBr3,6.907,0.365,3.636
PrLu3,41.625,41.541,41.583
MgW3,156.363,147,151.681
MgZr3,80.555,79.987,80.271
Si3Mo,124.211,120.802,122.507
SmGe3,66.749,65.218,65.983
SmTm3,42.057,41.926,41.991
Sm3Y,36.198,35.794,35.996
ThMg3,47.011,46.951,46.981
Sm3I,32.969,32.771,32.87
Sm3Cd,41.112,41.051,41.081
SmCd3,54.547,54.201,54.374
Sm3Er,36.799,36.38,36.589
Sm3Ho,36.602,36.226,36.414
SmMn3,74.41,71.144,72.777
Tm3Si,60.01,59.581,59.796
Zn3Rh,125.369,124.909,125.139
Sm3Hg,44.955,44.813,44.884
HfMg3,55.164,55.159,55.161
HoGa3,70.08,69.84,69.96
Na3Rh,20.682,20.215,20.449
Li3Re,-51.872,13.945,-18.964
Na3Cd,11.996,11.946,11.971
CaAc3,22.939,22.935,22.937
V3Cd,120.081,119.498,119.789
BN,200.265,4.649,102.457
CuAg3,96.983,96.271,96.627
Au3O,113.906,108.512,111.209
BaSr3,10.688,10.662,10.675
Ca3Tl,23.794,23.4,23.597
PmHo3,40.372,40.218,40.295
Ba3Te,15.615,15.369,15.492
Al3Fe,120.937,117.466,119.201
AgAu3,121.673,121.307,121.49
Ac3Pr,25.621,25.62,25.621
Ac3Th,32.224,32.197,32.211
Ac3Nd,26.455,26.351,26.403
HfP,147.776,146.475,147.126
HfAs,127.713,126.524,127.118
ZnO,165.552,165.405,165.478
TiH,121.891,121.825,121.858
TcN,356.635,331.021,343.828
TcB,290.206,286.469,288.337
TcB,302.94,299.213,301.077
AgN,148.812,143.955,146.384
RhN,277.573,269.6,273.586
ReN,393.255,391.443,392.349
PdN,216.165,208.827,212.496
OsC,385.683,364.039,374.861
NiBi,89.539,86.521,88.03
NbN,307.394,302.426,304.91
NbC,276.316,270.438,273.377
NbC,237.868,235.084,236.476
MnP,111.843,98.425,105.134
GeRu,171.945,171.945,171.945
GaPt,167.158,167.158,167.158
CoGe,108315.093,174.909,54245.001
MnGe,142.529,142.529,142.529
GaPd,133.478,150.065,141.771
AlPt,179.259,179.259,179.259
MgPt,113.116,113.116,113.116
MnSi,203.381,203.381,203.381
SiRh,221.514,221.514,221.514
AlAu4,127.118,127.118,127.118
SiRu,203.638,203.638,203.638
CrGe,157.411,157.411,157.411
GeRh,101.132,101.132,101.132
FeGe,156.708,156.708,156.708
HfSn,101.827,101.827,101.827
SiOs,209.102,209.102,209.102
H3N,8.895,8.895,8.895
BeAu,148.197,148.197,148.197
SnRh,140.398,140.398,140.398
ZrSb,104.291,104.291,104.291
AlPd,149.85,149.85,149.85
CrSi,183.655,183.655,183.655
CoSi,226.984,226.984,226.984
SiO2,19.957,19.957,19.957
HgPd,103.076,103.076,103.076
FeSi,201.745,201.745,201.745
Mn4Al11,123.582,122.798,123.19
HI3,2.688,0.883,1.785
MnP4,138.158,135.862,137.01
Al23B50,189.782,180.104,184.943
P2S5,2.666,2.952,2.809
NbS3,31.168,2.215,16.691
NbBr5,2.287,2.923,2.605
MnP4,137.955,136.328,137.141
ReS2,53.24,-31.187,11.027
CaC2,60.252,57.606,58.929
VS2,19.667,5.739,12.703
TcS2,50.444,2.354,26.399
FeP4,145.102,143.808,144.455
NbSe2,29.54,4.547,17.043
Mg2Zn11,68.686,68.686,68.686
Al12W,92.968,92.968,92.968
Sb3Ir,98.2,98.2,98.2
CoSb3,84.037,84.037,84.037
P3Rh,149.168,149.168,149.168
P3Ir,170.079,170.079,170.079
Al12Re,98.031,98.031,98.031
Al12Tc,96.935,96.935,96.935
CoP3,143.928,143.928,143.928
NiP3,125.545,125.545,125.545
NO2,5.601,5.601,5.601
Be17Ru3,151.947,151.947,151.947
CoAs3,108.351,108.351,108.351
As3Ir,128.27,128.27,128.27
Al12Mo,91.875,91.875,91.875
As3Rh,115.538,115.538,115.538
FeSb3,103.95,97.054,100.502
CrN2,1285413.844,238.495,642826.169
CuS2,53.369,53.369,53.369
Te2Ir,111.482,111.444,111.463
Sb2Pd,87.651,87.651,87.651
GaAs,57.058,57.058,57.058
AlSb,48.47,48.47,48.47
MgF2,104.298,104.298,104.298
Te2Ru,110.797,110.797,110.797
RuSe2,137.146,137.146,137.146
CO2,4.63,4.63,4.63
PdF2,77.68,77.68,77.68
RuS2,172.042,172.042,172.042
As2Pd,110.797,110.797,110.797
CoS2,127.327,127.327,127.327
NiSe2,96.857,96.857,96.857
OsS2,193.971,193.971,193.971
SiP2,108.341,108.341,108.341
MnSe2,66.359,66.359,66.359
Te2Os,130.119,130.119,130.119
NiAs2,105.659,105.659,105.659
MnTe2,49.969,49.969,49.969
CoSe2,99.992,99.992,99.992
FeS2,145.937,145.937,145.937
NiP2,132.249,132.249,132.249
CuSe2,74.484,74.484,74.484
Bi2Pt,82.069,82.069,82.069
CdO2,105.752,105.752,105.752
As2Pt,136.486,136.486,136.486
MgO2,129.089,129.089,129.089
MgTe2,37.266,37.266,37.266
GeO2,229.91,229.91,229.91
Sb2Pt,105.593,105.593,105.593
SiBr4,1.204,1.204,1.204
SnO2,192.235,192.235,192.235
P2Pt,175.121,175.121,175.121
Sb2Au,72.555,72.555,72.555
Te2Rh,95.422,95.422,95.422
ZnO2,138.631,138.631,138.631
RuO2,273.128,273.128,273.128
SiO2,310.27,310.27,310.27
Nd2O3,124.063,124.063,124.063
Tb2O3,141.499,141.499,141.499
Lu2O3,156.458,156.458,156.458
Mg3N2,110.105,110.105,110.105
Tl2O3,-119646.601,119.452,-59763.574
Tm2O3,150.148,150.148,150.148
Be3N2,214.318,214.318,214.318
Mg3As2,49.199,49.199,49.199
Sc2O3,167.269,167.269,167.269
Sm2O3,130.35,130.35,130.35
In2O3,144.766,144.766,144.766
La2O3,114.974,114.974,114.974
Dy2O3,143.814,143.814,143.814
Y2O3,138.413,138.413,138.413
Yb2O3,85.657,85.657,85.657
Gd2O3,131.73,131.73,131.73
Be3P2,91.876,91.876,91.876
Er2O3,145.923,145.923,145.923
Cu2O3,161.174,161.174,161.174
Al2O3,212.727,212.727,212.727
Ca3N2,67.434,67.434,67.434
Zn3N2,131.064,131.064,131.064
Sr3N2,50.639,50.639,50.639
YSb2,47.206,45.314,46.26
Ta2H,204.794,201.374,203.084
SrSi2,58.246,58.246,58.246
V8C7,249.054,249.054,249.054
BaSi2,52.121,52.121,52.121
Mg3Ru2,105.762,105.762,105.762
Fe2Re3,1691716.128,-189.785,845763.171
Fe4C,161.164,162.48,161.822
As4C3,117.639,117.639,117.639
Ge3As4,47.172,47.172,47.172
Sn3As4,34.489,34.489,34.489
Si3As4,58.179,58.179,58.179
C3N4,391.827,391.827,391.827
SnS,35.35,35.35,35.35
IrC,274.838,274.838,274.838
VN,218.203,218.203,218.203
WN,277.814,277.814,277.814
InBi,35.088,35.088,35.088
MoP,124.657,124.657,124.657
HfN,196.209,196.209,196.209
HfC,158.82,158.82,158.82
TcN,266.248,266.248,266.248
TcB,183.442,183.442,183.442
ReN,293.322,293.322,293.322
BAs,131.927,131.927,131.927
BiB,73.075,73.075,73.075
CdC,76.042,76.042,76.042
TlAs,36.447,36.447,36.447
TlP,45.906,45.906,45.906
TlN,89.83,89.83,89.83
CaSe,32.551,32.551,32.551
AuN,127.626,127.626,127.626
WC,262.759,262.759,262.759
Ti2Sn,73.05,73.05,73.05
Ti2Si,85.712,85.712,85.712
Ti2In,67.275,67.275,67.275
Ti2Ga,67.202,67.202,67.202
Ti2Ge,81.245,81.245,81.245
Ti2Al,65.503,65.503,65.503
AgC,108.357,108.357,108.357
Mn2Ge,174.991,174.991,174.991
CrTe,44.382,44.382,44.382
IrN,257.278,257.278,257.278
MnN,260.012,260.012,260.012
MnAs,33.641,33.641,33.641
MnP,43.416,43.416,43.416
MnSb,46.205,46.205,46.205
MoC,240.168,240.168,240.168
MnTe,35.201,35.201,35.201
NbC,206.433,206.433,206.433
OsN,295.071,295.071,295.071
PdC,182.304,182.304,182.304
OsC,290.276,290.276,290.276
PrN,94.434,94.434,94.434
RbSb,4.898,4.898,4.898
ReC,282.854,282.854,282.854
RhC,-53140800947,291.395,-26570400328
RhN,220.176,220.176,220.176
ScP,63.76,63.76,63.76
ScSn,31.662,31.662,31.662
ScN,140.651,140.651,140.651
ScSi,43.171,43.171,43.171
ScGe,42.391,42.391,42.391
AgN,110.704,110.704,110.704
RuN,260.463,260.463,260.463
RuC,269.305,269.305,269.305
SiSn,55.027,55.027,55.027
SnC,122.138,122.138,122.138
TaC,224.634,224.634,224.634
TaN,247.811,247.811,247.811
TcC,239.569,239.569,239.569
ZrC,145.849,145.849,145.849
TiB,102.537,102.537,102.537
GaBi,36.141,36.141,36.141
AlBi,38.773,38.773,38.773
NbN,223.571,223.571,223.571
CrN,215.484,215.484,215.484
PtC,213.851,213.851,213.851
Be5Fe,146.818,146.818,146.818
MgAl,20.499,20.499,20.499
ZnS,69.082,69.082,69.082
HgS,50.248,50.248,50.248
GaSb,44.793,44.793,44.793
ZnSe,56.491,56.491,56.491
Be5Au,138.173,138.173,138.173
MgSe,45.241,45.241,45.241
MgS,55.408,55.408,55.408
MgTe,35.367,35.367,35.367
MoN,254.255,254.255,254.255
YN,112.414,112.414,112.414
CuN,161.331,161.331,161.331
PtN,195.814,195.814,195.814
MoS2,60.301,60.301,60.301
BP,162.017,162.017,162.017
BeSe,74.87,74.87,74.87
AlP,82.769,82.769,82.769
SnTe,24.74,24.74,24.74
SnSb,29.442,29.442,29.442
BN,373.617,373.617,373.617
AlN,194.648,194.648,194.648
BeO,207.897,207.897,207.897
MnS,51.147,51.147,51.147
ZnO,129.269,129.269,129.269
InSb,36.737,36.737,36.737
InAs,48.543,48.543,48.543
InP,59.35,59.35,59.35
InN,121.5,121.5,121.5
AlAs,67.291,67.291,67.291
ZnTe,42.833,42.833,42.833
Cu2Se,87.207,87.207,87.207
CuI,38.575,37.899,38.237
CuBr,42.59,42.589,42.59
CuCl,56.095,56.095,56.095
AgI,25.685,25.685,25.685
MnSe,53.225,53.225,53.225
ZrNi5,-950170.241,199.244,-474985.499
CdS,53.24,53.24,53.24
GaP,76.335,76.335,76.335
BeTe,56.315,56.315,56.315
GaAs,60.742,60.742,60.742
AlSb,49.576,49.576,49.576
CdSe,44.641,44.641,44.641
HgTe,34.16,34.16,34.16
UNi5,183.584,183.584,183.584
DyCu5,107.72,107.72,107.72
ErCu5,106.265,106.265,106.265
TmCu5,109.138,109.138,109.138
ZrCu5,136.626,136.626,136.626
AgSe,50.145,50.145,50.145
CdTe,35.041,35.041,35.041
BeS,92.273,92.273,92.273
CoN,248.591,248.591,248.591
ZnNi,62.237,62.237,62.237
CaAu5,98.377,98.377,98.377
HoCu5,104.747,104.747,104.747
Be5Pd,142.084,142.084,142.084
FeN,272.864,272.864,272.864
CuS,81.684,81.684,81.684
SiC,212.682,212.682,212.682
SiP,61.616,61.616,61.616
HgSe,42.533,42.533,42.533
AgO,89.041,89.041,89.041
GaN,171.704,171.704,171.704
GeP,33.137,33.137,33.137
AgBr,27.578,27.578,27.578
PdN,169.43,169.43,169.43
BSb,98.422,98.422,98.422
YC,82.805,82.805,82.805
TiN,201.627,201.627,201.627
ZnN,135.277,135.277,135.277
H4C,0.79,0.79,0.79
Zn8Cu5,105.749,105.749,105.749
SiF4,7.258,7.258,7.258
Y5Mg24,105316.33,64963.527,85139.928
U2F9,78.546,78.546,78.546
Mg17Al12,49.768,49.768,49.768
BeF2,8.258,8.258,8.258
Si3N4,254.688,254.688,254.688
Zr3N4,200.814,200.814,200.814
La2C3,96.39,115.638,106.014
Th3P4,108.466,108.466,108.466
Sc4C3,113.058,113.058,113.058
Y2C3,119.54,119.54,119.54
Li15Ge4,28.204,28.204,28.204
Pu2C3,-970165.121,157.375,-485003.873
Ce2C3,115.855,115.855,115.855
U3Se4,64.012,64.012,64.012
Sm3S4,95.742,95.742,95.742
Nd3Te4,53.979,53.979,53.979
Ce3Te4,40.96,40.96,40.96
Th4H15,81.272,81.272,81.272
U2C3,184.428,184.422,184.425
C3N4,441.727,441.727,441.727
Ba4Bi3,24.169,24.169,24.169
U3Sb4,75.787,75.787,75.787
La3Se4,-6848518.87,101.09,-3424208.89
Li15Au4,28.91,28.91,28.91
Y4Sb3,65.825,65.591,65.708
Li15Si4,29.691,29.691,29.691
U3As4,100.456,100.456,100.456
La3Te4,50.175,50.175,50.175
SiOs,290.957,290.957,290.957
ZrB6,178.43,178.43,178.43
HfN,238.794,238.794,238.794
HoP,89.494,89.494,89.494
HoBi,56.537,56.537,56.537
HfC,205.719,205.719,205.719
VN,318.361,318.361,318.361
VCo,158.978,158.978,158.978
TcN,335.61,335.61,335.61
HfIr,207.546,207.546,207.546
TcB,311.631,311.631,311.631
ReN,361.49,361.49,361.49
EuS,79.757,79.757,79.757
DyP,89.871,89.871,89.871
PtC,225.203,225.203,225.203
ErN,159.266,159.266,159.266
PuBi,33.229,33.229,33.229
HfB6,181.947,181.947,181.947
CoNi,183.268,183.268,183.268
CoMo,227.71,227.71,227.71
CeS,119.446,119.446,119.446
HfPd3,179.875,179.875,179.875
HfRu3,232.863,232.863,232.863
HgPt3,192.168,192.168,192.168
HfOs3,288.028,288.028,288.028