formula,bulk_modulus_voigt,bulk_modulus_reuss,bulk_modulus_vrh
AlRe2,246.279,243.108,244.694
YbC2,66.728,61.63,64.179
BaO2,65.763,64.558,65.16
MnAu2,122.078,120.78,121.429
Cd2Hg,39.602,36.11,37.856
NbPd3,197.633,197.618,197.625
HfGa3,100.769,100.447,100.608
TaGa3,125.97,125.682,125.826
Hf2Pd,136.902,135.286,136.094
MgHg2,41.457,38.988,40.223
LuPb2,47.742,47.358,47.55
NbNi3,197.23,197.227,197.229
ScZn12,81.462,80.825,81.144
TaNi2,213.605,212.751,213.178
RbO2,20.936,20.751,20.844
ReSi2,224.278,221.567,222.923
Be12Pd,125.366,125.253,125.309
Mg2Rh,71.46,56.14,63.8
MgPd3,129.075,129.074,129.074
BeAu2,138.167,136.409,137.288
SmC2,110.976,102.051,106.514
GdC2,86.406,78.544,82.475
Mn3N2,204.556,202.986,203.771
SiPt2,208.362,203.855,206.108
Hf2Ag,111.261,110.938,111.1
Ti2Pd,142.114,141.254,141.684
BePd2,166.284,166.105,166.194
Tb2Mg,39.203,39.046,39.124
Zn3Ru,135.478,135.432,135.455
NbF4,54.661,12.136,33.398
HoC2,123.038,111.633,117.335
CsO2,18.464,18.296,18.38
Sr2Sb,28.227,26.987,27.607
Sr2As,32.386,31.605,31.995
ErC2,126.138,114.765,120.452
Be12Cr,190.833,167.791,179.312
Si2W,220.031,218.855,219.443
Al3Os2,202.499,202.347,202.423
AlCr2,184.35,182.359,183.355
VNi3,217.13,217.128,217.129
BaC2,41.043,39.063,40.053
CaAl4,57.285,55.288,56.287
SrGa4,48.223,47.873,48.048
NdAl4,71.469,70.447,70.958
NbAl3,126.235,126.075,126.155
KO2,24.338,24.153,24.246
SmS,33.391,1.097,17.244
SmAl4,72.37,71.651,72.01
BaAl4,51.06,50.415,50.737
Zr2Cu,105.775,105.639,105.707
NbGa3,123.195,122.75,122.973
CaGa4,51.336,50.818,51.077
PrC2,101.112,93.85,97.481
LaAl4,71.011,70.038,70.525
TbC2,119.294,109.523,114.409
HoAg2,76.511,75.496,76.004
Nb3Au2,174.054,174.037,174.046
RbIn4,22.957,21.18,22.069
Zr2Ag,97.936,97.936,97.936
YMn12,142.953,133.488,138.221
BaIn4,33.564,33.102,33.333
HgI,15.023,5.737,10.38
HgCl,14.906,8.673,11.79
NdC2,105.814,97.651,101.733
HgBr,15.465,7.73,11.597
LaI2,18.708,2.384,10.546
Zr2Au,119.277,119.127,119.202
HBr,18.343,0.682,9.513
LaC2,95.627,88.975,92.301
ZrH2,133.535,128.733,131.134
ThH2,93.466,83.662,88.564
ErAu2,104.91,102.711,103.81
TiH2,141.926,139.524,140.725
CaC2,59.978,53.141,56.56
UC2,178.279,168.457,173.368
Al3V,122.056,121.981,122.019
Si2Mo,206.298,205.194,205.746
HfAl3,106.578,106.428,106.503
DyAg2,75.033,74.074,74.554
SrC2,49.437,45.32,47.378
Ti3Cu4,132.628,132.587,132.608
Zr2Pd,124.384,123.404,123.894
SrO2,74.826,67.468,71.147
VPt3,247.752,247.739,247.745
SnF4,57.156,16.567,36.861
TiGa3,97.951,97.561,97.756
Mg2Ga5,51.117,51.082,51.099
Ba2As,25.741,23.45,24.595
HfH2,148.56,145.395,146.977
SrAl4,54.391,53.622,54.006
CeC2,98.713,91.766,95.24
NdI2,18.307,-13.524,2.392
Hf3Te2,53.777,20.673,37.225
ErAg2,77.721,76.951,77.336
TbAg2,73.223,71.629,72.426
Hf2Au,133.028,132.982,133.005
Mn2Au,111.865,103.728,107.796
CdHg2,31.198,28.836,30.017
Ti2Cd,89.994,88.573,89.283
Hf2Cu,124.78,123.137,123.959
Ti2Cu3,139.183,139.182,139.182
ZrGa3,97.671,97.056,97.364
U2Mo,179.642,179.528,179.585
TaPd3,210.492,210.483,210.488
TiPt8,240.549,240.521,240.535
V4Zn5,125.836,125.246,125.541
YZn12,80.037,79.608,79.823
MnPd3,146.982,146.965,146.973
DyAl3,73.185,72.333,72.759
YC2,118.778,107.842,113.31
Zr2Sb,106.852,106.286,106.569
LaF3,127.735,127.523,127.629
Hf4N3,225.192,224.872,225.032
BaGa4,47.993,47.242,47.617
PbF4,45.491,16.548,31.019
ZrAl3,102.818,102.591,102.705
NaGa4,39.261,39.186,39.224
DyC2,122.078,112.743,117.411
Ge2W,170.059,170.038,170.049
TiAl3,106.269,106.148,106.208
Fe8N,185.503,184.506,185.005
TmAu2,106.265,104.064,105.164
TaBe12,136.717,135.779,136.248
Ti2Bi,81.512,70.446,75.979
HfAl3,106.181,106.091,106.136
Be12W,144.972,144.9,144.936
Be12Nb,134.419,133.654,134.036
Nb4N3,282.107,282.101,282.104
Ca2Bi,31.631,30.898,31.265
TbAu2,97.996,95.713,96.855
Bi2Pd,54.399,49.789,52.094
BiSe,7.571,-0.668,3.452
TaNi3,221.413,221.267,221.34
ZrIn3,76.053,75.618,75.835
TlPd3,133.994,133.876,133.935
Be12V,129.536,129.472,129.504
Be12Pt,132.347,132.141,132.244
CaO2,79.714,38.172,58.943
K3B17,104.076,90.183,97.13
HgF,39.642,22.432,31.037
Al2Os,190.012,190.011,190.012
Ti2Cu,131.237,130.619,130.928
La2Sb,49.851,49.375,49.613
Ba2Cd,14.897,14.757,14.827
Ba2Hg,16.254,15.953,16.104
ThH3,101.943,101.384,101.664
PaO3,252.222,252.197,252.209
LiCu3,92.465,92.441,92.453
Be3Ir,189.26,188.816,189.038
LiAg3,66.508,66.504,66.506
Pt3W,283.49,283.462,283.476
PmF3,136.521,135.964,136.242
Ir3Rh,324.499,324.497,324.498
Na3Sn,17.496,17.487,17.492
Na3In,13.56,13.549,13.554
Be3Ni,153.49,153.468,153.479
TmF3,152.56,151.575,152.068
Zn3Rh,129.2,128.081,128.64
Zn3Pt,137.153,137.066,137.109
Zn3Pd,111.553,110.713,111.133
Zn3Ir,146.399,146.313,146.356
ZnPd3,151.403,151.118,151.261
AcTe3,50.949,44.928,47.939
Be3Ru,180.623,180.254,180.438
PaBi3,65.772,62.79,64.281
Ti3Tl,108.987,108.756,108.872
LiMg2,30.207,30.134,30.17
CdPd3,135.856,135.704,135.78
Al3Tc,143.225,142.601,142.913
Al3Cr,106.002,106.001,106.001
TaAl3,132.439,132.39,132.414
VPd3,190.818,190.814,190.816
CrSi2,190.105,189.833,189.969
ZnBi3,49.616,49.498,49.557
ZnRh3,209.274,209.27,209.272
Zn3B,95.013,95.011,95.012
Zn3Ge,65.753,65.747,65.75
Zn3Co,103.789,99.967,101.878
Zn3Sn,52.483,50.236,51.36
Zn3Os,150.77,150.574,150.672
Ti3Ga,116.5,116.367,116.433
TcGe3,114.451,114.142,114.297
Zr3Zn,94.174,93.992,94.083
TcAs3,130.959,129.596,130.278
Sr3Li,11.012,11.004,11.008
Tc3As,248.437,246.855,247.646
TcPt3,261.369,261.32,261.344
U3Pa,104.538,88.53,96.534
SmP3,87.952,80.836,84.394
SmAs3,78.425,72.412,75.418
Cu3Si,136.457,136.403,136.43
SeBr3,29.617,1.407,15.512
La3Dy,29.534,29.503,29.518
La3Er,29.875,29.314,29.595
ScRu3,203.701,203.144,203.422
ScCu3,103.173,103.063,103.118
NaAg3,52.613,52.419,52.516
ScBi3,56.311,54.196,55.254
Mn3Zn,199.616,199.317,199.466
KLa3,19.467,19.466,19.467
K3Y,7.168,7.114,7.141
K3Sm,6.841,6.687,6.764
K3Sr,4.923,4.917,4.92
GeAs3,71.707,65.658,68.682
PmBi3,54.685,52.231,53.458
Pa3Tl,90.694,89.947,90.32
Ni3I,142.822,139.04,140.931
SBr3,31.323,1.948,16.635
S3Br,44.696,1.981,23.338
Ir3Ru,337.871,337.87,337.871
Re3W,342.863,342.853,342.858
Re3Ir,366.041,365.991,366.016
ReAu3,-72.103,-108.918,-90.51
NdP3,85.414,78.134,81.774
Pt3Rh,249.587,249.526,249.556
KSr3,9.278,9.268,9.273
Rb3Tc,5.417,5.388,5.403
Rb3In,5.033,5.133,5.083
Rb3Ca,4.327,4.327,4.327
Rb3Ba,3.699,3.69,3.694
Rb3Ac,5.097,5.048,5.073
RbSr3,8.535,8.53,8.532
RbPr3,20.132,20.132,20.132
RbCa3,11.181,11.18,11.18
Li3Be,26.483,26.464,26.474
Li3Al,26.88,26.871,26.875
Li3Cu,31.647,31.33,31.489
Li3Cd,22.674,22.616,22.645
LiAl3,62.535,62.397,62.466
LiAu3,102.314,102.139,102.226
Mo3H,204.15,203.825,203.988
Li3Co,-17.336,-149.803,-83.57
Li3Hg,25.641,25.64,25.641
Li3In,24.672,24.671,24.671
Li3Ca,14.3,14.298,14.299
Hf3Tl,104.547,104.414,104.481
NaAl3,48.959,48.805,48.882
Li3Nb,31.352,31.342,31.347
LiCa3,15.363,15.357,15.36
Li3Ac,16.685,16.669,16.677
Li3Ag,25.876,25.854,25.865
Li3Zn,23.561,23.562,23.562
Hf3Bi,102.841,102.841,102.841
Hf3C,114.583,114.47,114.527
Nd3Pd,45.737,43.088,44.412
NaMg3,26.792,28.536,27.664
NiGe3,86.007,85.995,86.001
Ni3Au,173.432,173.425,173.428
NaNi3,96.139,95.881,96.01
NaPd3,97.478,97.397,97.437
NpAs3,106.47,92.44,99.455
NaRu3,173.061,172.369,172.715
Li3Tc,37.648,37.398,37.523
Pm2Mg,36.566,36.506,36.536
NpH3,95.752,94.748,95.25
Na3Tl,12.06,12.043,12.052
Mg3Br,26.443,25.733,26.088
Mg3Cr,44.208,43.929,44.069
Mg3Ga,40.658,40.594,40.626
Mg3In,38.856,38.807,38.832
Mg3Os,85.354,85.129,85.241
Mg3Pb,36.382,36.315,36.348
SiAs3,75.62,67.595,71.607
Si3Ag,84.7,84.674,84.687
SiHg3,47.247,41.964,44.605
Sc3Sb,66.828,66.368,66.598
SiRh3,238.194,238.153,238.173
Sm3I,32.939,32.772,32.856
Sm3Pd,48.453,46.726,47.59
TlAu3,86.329,86.297,86.313
Th3S,58.671,58.255,58.463
SrAc3,20.365,20.295,20.33
Th3O,57.943,-3.085,27.429
Ti2Ag,115.199,115.042,115.12
W3C,265.979,257.419,261.699
Yb3U,-11.169,-347.334,-179.252
YbOs3,224.345,224.32,224.333
TiP3,111.81,102.842,107.326
Ti3N,142.652,140.339,141.495
Zn3Cd,58.205,58.187,58.196
Tl3V,37.439,37.378,37.409
Ti3Nb,123.615,121.755,122.685
Zn3C,100.285,99.678,99.982
Zn3N,99.575,103.626,101.6
ScSn3,57.902,56.212,57.057
Sc3P,68.2,67.192,67.696
Hg3Ir,104.681,102.824,103.752
PrH3,83.093,83.001,83.047
TcAg3,104.355,104.34,104.348
Hg3F,41.857,41.071,41.464
KNd3,22.363,22.339,22.351
NaCu3,67.999,67.751,67.875
Na3Mg,11.333,11.333,11.333
K3In,6.457,6.455,6.456
BiH3,75.392,71.273,73.332
CsCa3,9.813,9.81,9.811
ErRu3,181.24,181.034,181.137
Cr3Se,-103.701,-382.772,-243.236
Ce3Zn,34.06,33.987,34.023
BaTh3,37.507,37.499,37.503
AcLa3,25.05,25.05,25.05
AcF3,114.087,113.925,114.006
Co3Bi,148.151,146.311,147.231
Ag3P,90.742,90.611,90.676
Ag3Pd,105.244,105.186,105.215
Ag3N,102.257,102.221,102.239
CeY3,31.387,30.731,31.059
HoAu2,101.95,99.714,100.832
Ca2Sb,35.462,34.466,34.964
ScAl3,82.767,82.421,82.594
Nb3Cr,182.197,181.383,181.79
P2Ir,194.405,192.039,193.222
MnB4,281.227,268.117,274.672
NiS2,36.181,-11.503,12.339
BaO2,46.888,46.216,46.552
CuF2,78.134,55.759,66.947
Sb2Ir,118.882,115.916,117.399
CoP2,165.381,163.292,164.337
Lu4C7,130.342,125.826,128.084
As2Ir,153.229,150.863,152.046
As2O3,12.917,6.971,9.944
Ag2Te,54.182,51.636,52.909
P2Rh,166.527,163.471,164.999
As2Rh,135.746,133.136,134.441
Al9Co2,108.63,106.345,107.487
FeS,156.641,152.708,154.674
SiRh,197.122,171.834,184.478
Bi2Rh,84.098,81.492,82.795
I2O5,18.869,16.086,17.477
Bi2O3,57.339,49.514,53.426
AlBr3,1.468,0.497,0.983
Sb2Rh,105.335,102.829,104.082
CoAs2,123.383,120.208,121.796
FeP4,137.156,136.739,136.947
RhN2,216.742,211.135,213.938
SiCl4,0.538,0.505,0.521
ZrO2,188.579,177.638,183.109
BiBr3,5.309,1.751,3.53
Al2Te3,0,0,0
AlI3,1.079,1.005,1.042
GaBr3,0.818,0.636,0.727
GaI3,1.166,1.085,1.125
TcO2,256.484,255.457,255.97
HfO2,209.068,200.74,204.904
MgP4,58.095,56.831,57.463
IrN2,341.901,337.289,339.595
TiO2,162.17,153.817,157.994
AsSe,2.55,1.374,1.962
SN,2.903,2.761,2.832
BF3,5.502,5.442,5.472
NdSe2,66.046,65.915,65.98
Ca5Au4,42.251,41.002,41.626
As2S3,10.214,1.725,5.969
SiO2,19.736,16.417,18.076
ZnAs2,51.504,51.404,51.454
Al2O3,118.524,95.33,106.927
CoSb2,100.305,97.353,98.829
Al2O3,183.082,181.364,182.223
MnP4,119.654,114.757,117.205
Er5Si4,79.491,75.71,77.6
CdP4,55.68,55.167,55.424
AgP2,63.962,62.136,63.049
As2Se3,12.244,2.793,7.518
CuP2,88.269,87.094,87.682
LiP,41.674,41.055,41.365
Ta2B,248.94,248.876,248.908
Mg2Cu,60.194,59.657,59.925
FeSb2,67.252,64.596,65.924
Pr5Si3,429241.118,78.228,214659.673
BW2,329.553,329.552,329.552
Ta2Be,185.96,185.779,185.869
Zr2Fe,123.415,122.622,123.018
Hf2Al,111.304,111.043,111.173
Zr2Al,97.931,97.652,97.792
Zr2Si,127.313,127.272,127.293
Mg2Pt,70.804,70.583,70.693
Si3Mo5,241.254,240.291,240.773
Nb5Si3,36858.554,372.124,18615.339
Cr5B3,290.967,290.884,290.926
Cr2B,292.042,291.985,292.013
Th2Ge,80.522,79.956,80.239
Zr5Al3,101.829,101.744,101.787
TlSe,20.913,19.876,20.394
SiIr3,298.9,297.877,298.389
Ta2Ni,229.195,226.871,228.033
Fe2B,221.379,220.353,220.866
Ta5Si3,215.425,215.235,215.33
In2Ag,42.969,42.899,42.934
MnSn2,66.753,65.996,66.375
CoSn2,103.625,103.506,103.565
Mn2B,316.949,285.129,301.039
InTe,15.556,14.061,14.809
PdPb2,65.665,65.658,65.662
U6Fe,154.774,143.738,149.256
FeGe2,118.316,116.927,117.621
PtPb2,75.061,74.769,74.915
BaTe2,28.367,28.237,28.302
Th2Ag,72.085,71.871,71.978
FeSn2,81.135,80.231,80.683
In5Bi3,37.556,34.773,36.164
BMo2,293.334,293.319,293.327
Ni2B,241.879,234.359,238.119
CrSb2,82.381,82.266,82.324
Ta2Si,214.691,214.511,214.601
Ca5Zn3,27.533,27.345,27.439
VSb2,99.905,99.458,99.681
Cd5Au3,73.918,73.11,73.514
Tl2Au,38.496,37.757,38.126
Hf2Ga,119.183,118.838,119.01
Ca5Ag3,30.111,29.975,30.043
Si3W5,267.921,266.296,267.109
RhPb2,80.124,80.122,80.123
TlS,23.953,22.193,23.073
Zr2Ni,118.584,117.031,117.807
Sn2Ru,117.075,116.977,117.026
CsN3,15.302,15.251,15.276
Sn2Rh,107.82,107.684,107.752
Nd5Si3,58.324,52.032,55.178
Nb5Si3,193.427,192.405,192.916
TiSb2,89.664,88.698,89.181
Th2Ga,72.52,72.074,72.297
V5Si3,193.556,192.657,193.107
Zr2Ga,107.076,106.991,107.034
Ti3Sb,109.883,108.697,109.29
Ce5Si3,0,0,0
Ta5Si3,211.564,209.576,210.57
Nb5Ga3,164.951,164.637,164.794
Tl2Pd,56.748,56.734,56.741
Tl2Pt,65.504,64.255,64.88
Zr2Rh,129.419,122.814,126.117
Ta2Co,213.65,213.614,213.632
Zr2Co,114.424,106.222,110.323
KN3,5.893,2.703,4.298
RbN3,18.111,17.862,17.987
Cr5Si3,224.522,223.703,224.113
Tl2Au,38.112,37.121,37.616
Ca5Si3,40.879,40.316,40.597
KN3,20.881,20.154,20.517
Hf2Ni,142.306,139.159,140.732
TlN3,19.962,19.511,19.737
U3Si,141.509,140.979,141.244
PbSe2,44.933,44.585,44.759
Hf2Si,141.741,141.723,141.732
Hf2Ge,133.025,133.003,133.014
Al2Cu,110.885,104.288,107.587
ThGe2,86.202,85.44,85.821
IrO2,196.155,188.291,192.223
LiAg,44.74,43.297,44.019
YGe2,68.367,68.274,68.32
CrB,305.035,304.835,304.935
PrGe2,64.617,64.614,64.615
SmGe2,68.828,68.815,68.822
YSi2,85.668,85.433,85.55
DySi2,88.19,87.895,88.042
LiSn,37.743,37.451,37.597
SrSi2,54.075,50.978,52.527
BMo,311.15,311.108,311.129
CeSi2,90.102,88.065,89.084
LaGe2,63.419,62.547,62.983
LaSi2,79.783,78.484,79.133
ZrIn2,81.533,81.526,81.529
GdSi2,79.597,77.643,78.62
NdGe2,66.605,66.048,66.327
ThBr4,29.488,23.709,26.598
BaGe2,39.827,39.289,39.558
PrSi2,80.886,80.174,80.53
Mo2N,351.223,402.919,377.071
CuN3,22.364,9.197,15.781
Cu2S,88.412,86.826,87.619
ThSi2,106.469,106.309,106.389
ZrGa,113.85,113.342,113.596
AuCl,10.38,10.153,10.267
Sm2O,81.924,78.391,80.158
TiO2,186.874,181.619,184.247
TiAl2,109.693,109.688,109.691
AuBr,7.643,7.626,7.634
TiGa2,105.665,105.645,105.655
V2H,191.983,191.481,191.732
ThPb,66.466,61.613,64.039
ZrO2,171.503,167.182,169.342
SnO2,140.279,139.312,139.796
NbO2,196.837,166.449,181.643
Ti2N,181.621,176.762,179.192
BW,341.801,341.8,341.8
CaSi2,62.331,55.162,58.747
NdSi2,82.467,81.161,81.814
NbP,168.495,142.237,155.366
NaC,33.566,36.767,35.167
Sn2Pd,82.435,82.303,82.369
Sn4Ir,71.757,71.034,71.396
C3N4,129.01,8.718,68.864
TiNi,151.294,150.499,150.897
Ca3Au4,52.334,51.649,51.992
Zr3Pd4,144.493,144.156,144.324
Rh3Se8,74.681,74.321,74.501
Mo3S4,57.108,94.519,75.814
BiI3,3.949,1.386,2.668
FeCl3,18.903,12.315,15.609
AsI3,4.875,2.001,3.438
TiCl3,9.07,2.98,6.025
SbI3,4.655,1.765,3.21
ScCl3,10.725,0.788,5.757
CrBr3,12.648,0.19,6.419
Cr2Se3,56.402,54.561,55.481
Sb7Pd20,139.985,139.641,139.813
Sr3Ag2,21.546,21.159,21.352
CrCl3,15.054,2.544,8.799
Ti3Ni4,157.096,156.476,156.786
WCl6,1.665,1.558,1.611
AlPd,149.814,149.799,149.807
Sc2O3,144.127,133.666,138.896
Al2O3,190.71,183.868,187.289
Te4Mo3,32.707,32.659,32.683
Ir3Se8,83.13,83.12,83.125
Fe3N,201.36,201.198,201.279
Zr2O,153.59,153.363,153.477
BaC2,40.973,39.965,40.469
Ta2O5,134.325,119.048,126.687
SrC2,50.427,49.051,49.739
MoP4,137.289,133.596,135.442
CF4,4.682,4.595,4.638
SiO2,113.665,107.725,110.695
Cu6Sn5,79.977,79.94,79.958
CaC2,59.067,57.287,58.177
Sb2O5,126.623,124.45,125.537
SbO2,94.874,70.217,82.545
KO2,19.007,13.687,16.347
Mn5C2,220.532,217.848,219.19
NaSi,20.825,15.097,17.961
BeP2,89.366,89.365,89.366
Fe5C2,230.849,230.381,230.615
P2Pd,124.059,96.588,110.324
Al2O3,197.619,196.465,197.042
NiP2,132.914,93.135,113.025
OsO4,3.904,3.694,3.799
TiI4,3.056,0.927,1.991
SiO2,18.554,10.672,14.613
BiO2,74.692,28.269,51.48
SiO2,264.179,263.809,263.994
P3N5,151.817,145.84,148.829
FeP4,135.37,135.182,135.276
MnP4,138.275,135.761,137.018
CrP4,128.951,122.568,125.759
BaSe2,30.71,29.816,30.263
MnP4,131.82,128.838,130.329
PdF3,43.345,26.718,35.031
Na2O,47.27,46.664,46.967
V6C5,238.028,237.676,237.852
BeF2,21.434,21.257,21.345
B2O3,42.59,23.739,33.164
Ge4Ir,108.76,108.481,108.621
TiO2,21.906,21.476,21.691
HgS,9.743,8.869,9.306
SiO2,30.156,29.439,29.797
GeO2,39.135,36.586,37.861
GeO2,34.324,30.554,32.439
SiO2,33.607,33.529,33.568
HgS,8.071,7.611,7.841
Ni3Se2,105.914,104.596,105.255
MgHg5,24.767,23.133,23.95
SnAu5,114.931,114.518,114.725
Ni3S2,127.151,126.706,126.928
SiO2,74.998,51.867,63.433
Mg3Hg,40.706,40.508,40.607
MgPd5,141.034,140.587,140.811
Sm5Mg,35.606,35.332,35.469
Li5Mg,17.377,17.261,17.319
BC5,377.137,376.619,376.878
SiC,213.209,213.206,213.208
SiC,213.232,213.227,213.229
SiC,213.096,213.094,213.095
SiC,213.257,213.251,213.254
CuI,14.644,3.093,8.869
CdI2,11.201,2.387,6.794
SiC,213.215,213.209,213.212
SiC,213.188,213.183,213.186
SiC,213.199,213.197,213.198
MgO,115.855,115.214,115.534
SnGe,9.245,0.493,4.869
CdAu,89.483,97.779,93.631
TiNi,153.156,149.561,151.359
Bi2O3,33.363,33.358,33.361
Si3N4,222.077,221.976,222.026
Si3N4,198.191,183.238,190.714
Ge3N4,163.427,163.412,163.42
TaS2,51.974,3.119,27.546
GaSe,24.93,4.465,14.697
BN,199.736,-10.483,94.626
ZnS,68.994,68.971,68.983
TiO2,94.613,78.806,86.709
MoS2,49.982,-0.97,24.506
NiS,120.382,119.958,120.17
NiSe,109.927,109.147,109.537
InSe,18.532,3.48,11.006
ZrCl2,29.443,1.12,15.281
ZnS,68.982,68.941,68.961
ZnS,69.556,69.538,69.547
ZnS,68.912,68.852,68.882
Al2O3,214.558,210.744,212.651
MoSe2,38.889,0.185,19.537
NbSe2,36.99,4.041,20.516
TaSe2,41.446,4.31,22.878
GeTe,37.905,28.127,33.016
NbS2,23.349,-4.063,9.643
WS2,54.823,2.603,28.713
SiC,213.129,213.081,213.105
Fe2N,249.136,248.177,248.656
V2N,268.058,268.027,268.043
W2C,336.08,335.619,335.85
BiI3,4.646,2.58,3.613
Cr2N,290.623,285.845,288.234
Cr2Te3,42.865,41.222,42.043
SiO2,134.259,133.857,134.058
Al2O3,191.724,186.477,189.101
W2C,318.058,312.689,315.374
V2C,218.809,218.624,218.716
Be3N2,220.882,216.421,218.652
Bi2O3,120.35,115.889,118.12
ZrTe2,18.214,8.741,13.477
VI2,14.207,4.122,9.164
NbTe2,29.389,13.273,21.331
Ta2N,271.566,269.385,270.475
NbSe2,31.504,5.47,18.487
MoS2,29.466,0.605,15.035
AlNi2,170.146,170.004,170.075
WSe2,31.763,1.131,16.447
MgCd,40.341,40.036,40.188
Al3Ni2,131.505,130.976,131.24
CaO2,-130.159,-212.514,-171.337
Al3Cu2,97.912,97.893,97.903
Al3Pd2,128.271,127.512,127.891
Al3Pt2,150.494,150.041,150.267
Ac2O3,106.531,96.061,101.296
PtSe2,30.639,-26.053,2.293
Ga3Ni2,118.612,117.954,118.283
SnS2,25.276,2.249,13.762
ZrS2,30.289,7.834,19.062
Ti2O,183.434,182.945,183.19
Y2O3,144.968,136.28,140.624
Lu2O3,160.5,150.825,155.662
Ag2F,83.558,73.254,78.406
Te2Au,65.479,65.21,65.345
TaS2,40.649,2.757,21.703
TiTe2,25.135,16.234,20.685
La2O3,120.45,111.594,116.022
Pr2O3,126.182,117.127,121.654
ZrSe2,24.254,7.51,15.882
In3Ni2,105.755,105.417,105.586
Ga3Pt2,130.476,130.016,130.246
TiS2,31.136,4.869,18.003
TiSe2,22.82,-0.706,11.057
Fe2Si,237.266,237.092,237.179
Te2Ir,55.937,41.616,48.777
VCl2,17.504,3.471,10.488
2-Feb,16.513,4.65,10.581
WCl6,1.165,1.051,1.108
Nb2C,223.243,223.233,223.238
MgI2,12.622,5.707,9.165
BiTe,25.9,20.195,23.047
NiTe2,66.605,49.041,57.823
Mg3Sb2,42.467,42.271,42.369
Ce2O3,123.783,118.183,120.983
TiBr2,3.597,3.844,3.721
MnI2,12.615,2.099,7.357
TiCl2,20.268,5.098,12.683
MnBr2,15.347,3.426,9.387
SiH,25.694,3.716,14.705
Sc2C,73.236,68.694,70.965
Nb3Cl8,23.669,2.25,12.959
CaI2,6.781,0.864,3.823
CoBr2,44.142,28.27,36.206
MgBr2,13.211,1.609,7.41
Li13Sn5,29.8,29.725,29.762
HfTe2,17.707,5.768,11.738
Te2Pt,55.357,34.994,45.176
In3Pd2,89.027,88.044,88.536
Pm2O3,133.949,124.887,129.418
CdI2,12.21,7.031,9.621
BaSn2,33.717,31.656,32.687
Mg3Bi2,36.749,36.714,36.731
Bi2Pt,35.41,34.993,35.201
CoI2,7.953,-1.957,2.998
TiPt3,234.146,234.144,234.145
Al3Pt2,125.118,120.248,122.683
CuI,14.511,-0.075,7.218
Cr3Te4,32.888,25.687,29.287
MgCl2,16.285,2.968,9.627
YbI2,6.947,1.875,4.411
FeCl2,16.436,1.39,8.913
FeI2,14.903,6.996,10.949
B2O,74.703,-9.804,32.449
PtO2,81.336,0.897,41.116
SnSe2,21.138,2.045,11.592
CrTe2,32.474,27.662,30.068
VSe2,27.277,8.68,17.979
CoCl2,-110.329,-136.481,-123.405
Sb2Te,34.632,29.545,32.089
Ta2C,260.495,260.434,260.465
SrGe2,47.663,46.179,46.921
Ni2H,201.64,201.603,201.621
Cu3P,123.454,122.618,123.036
CrS2,41.581,24.523,33.052
PtS2,38.528,2.898,20.713
BaSi2,51.364,49.228,50.296
Ag2O,100.436,87.825,94.131
Te2Pd,55.094,51.012,53.053
Mg3As2,54.031,53.32,53.676
UO3,170.28,167.614,168.947
CaSi2,64.224,56.583,60.404
VS2,35.316,5.35,20.333
U2N3,204.398,192.78,198.589
HfS2,28.623,0.045,14.334
HfSe2,26.099,7.523,16.811
NbS2,39.465,-15.641,11.912
Mg3Au,57.64,57.631,57.636
YH3,79.036,77.727,78.381
LaF3,102.33,101.894,102.112
SrC2,57.003,49.453,53.228
CaC2,66.674,52.17,59.422
VS2,29.182,4.579,16.881
CaGe2,16.007,-0.364,7.822
NiTe,36.994,32.731,34.863
MgCd,40.856,39.713,40.284
MgBi,39.696,39.708,39.702
CaMg,21.898,21.041,21.47
TbCo3,125.868,-54.347,35.76
DyNi3,132.947,128.824,130.886
SmFe3,101.059,100.972,101.016
Y2Co17,77.84,-172.906,-47.533