formula,bulk_modulus_voigt,bulk_modulus_reuss,bulk_modulus_vrh
HfAl3,103.976,103.976,103.976
CoW,246.534,246.534,246.534
FeCo3,191.847,191.847,191.847
CrNi3,205.939,205.939,205.939
Co3W,274.04,274.04,274.04
Cr3Ni,240.418,240.418,240.418
Co3Mo,255.044,255.044,255.044
CrCo3,380.486,380.486,380.486
Cr3Fe,239.14,239.14,239.14
Co3Ni,258.138,258.138,258.138
CdN,112.987,112.987,112.987
Al3V,99.015,99.015,99.015
AlCu3,138.447,138.447,138.447
WC,366.4,366.4,366.4
DySb,63.091,63.091,63.091
EuSe,38.732,38.732,38.732
ErSb,64.532,64.532,64.532
LaSe,69.443,69.443,69.443
IrN,294.742,294.742,294.742
LaTe,54.624,54.624,54.624
LiF,70.937,70.937,70.937
HoSb,63.496,63.496,63.496
FeN,200.505,200.505,200.505
MgO,140.191,140.191,140.191
MnCo,192.154,192.154,192.154
MnSn,27.523,27.523,27.523
MnSb,57.942,57.942,57.942
NaH,23.963,23.963,23.963
NdN,133.053,133.053,133.053
NbCo,207.312,207.312,207.312
NbC,275.894,275.894,275.894
NbN,299.401,299.401,299.401
NiN,337.207,337.207,337.207
CrN,313.927,313.927,313.927
NpN,179.621,179.621,179.621
OsC,389.83,389.83,389.83
PdN,212.33,212.33,212.33
PrN,133.807,133.807,133.807
ReC,395.957,395.957,395.957
ScC,149.406,149.406,149.406
SrO,88.931,88.931,88.931
TaN,312.497,312.497,312.497
TaC,290.736,290.736,290.736
ZrN,225.944,225.944,225.944
ZrC,193.2,193.2,193.2
CrCo,214.789,214.789,214.789
MgNi,92.625,92.625,92.625
SiRh,209.057,209.057,209.057
PrBi,50.945,50.945,50.945
Ca3N2,61.811,61.811,61.811
Ba3N2,36.533,36.533,36.533
Sr3N2,46.799,46.799,46.799
Ca3Sb2,29.002,29.002,29.002
Ca3P2,39.504,39.504,39.504
Ba3Sb2,20.26,20.26,20.26
Sr3Bi2,22.202,22.202,22.202
Ba3Bi2,18.785,18.785,18.785
C3N,105.148,105.148,105.148
HfZn,115.663,115.663,115.663
TiZn,110.695,110.695,110.695
C3N,158.721,158.721,158.721
Cr3N4,274.267,274.267,274.267
InSb,44.937,44.937,44.937
IrC,323.158,323.158,323.158
VCo3,239.242,239.242,239.242
ZrOs3,278.47,278.47,278.47
ZrPd3,170.19,170.19,170.19
ZrRu3,224.96,224.96,224.96
CuPd,147.228,147.228,147.228
UBi,75.465,75.465,75.465
HfPt3,231.325,231.325,231.325
FeH3,207.518,207.518,207.518
IrN,304.326,304.326,304.326
OsN,353.873,353.873,353.873
ReN,366.211,366.211,366.211
TcN,322.518,322.518,322.518
TaRh3,260.037,260.037,260.037
IrO3,202.01,202.01,202.01
In3Sb,33.105,33.105,33.105
AlCu,107.236,107.236,107.236
NpB6,170.195,170.195,170.195
Ta4C3,292.905,292.905,292.905
HfRh3,215.169,215.169,215.169
GdCd,53.093,53.093,53.093
BeNi,182.847,182.847,182.847
MgCd,42.487,42.487,42.487
Ca3Zn,20.037,20.037,20.037
MgAl,48.424,48.424,48.424
Mg3Bi,40.241,40.241,40.241
SnBi,49.232,49.232,49.232
CaZn,32.75,32.75,32.75
CaMg,25.36,25.36,25.36
MgBi,46.143,46.143,46.143
UIr3,303.949,303.949,303.949
NdZn,52.019,52.019,52.019
IN,79.044,79.044,79.044
CsI,9.862,9.862,9.862
NCl,29.74,29.74,29.74
NdCd,48.816,48.816,48.816
FeIr3,-740.944,-740.944,-740.944
SrS,51.792,51.792,51.792
TlS,43.898,43.898,43.898
ThSb,81.728,81.728,81.728
TlSe,37.041,37.041,37.041
SmTe,62.478,62.478,62.478
BaSe,38.98,38.98,38.98
CaTe,38.427,38.427,38.427
ScF3,90.553,90.518,90.536
CaCd,31.367,31.367,31.367
KB6,133.72,133.72,133.72
VIr3,319.895,319.895,319.895
AlAu,108.705,108.705,108.705
La3Al,33.748,33.748,33.748
TiIr3,294.735,294.735,294.735
LiAl3,63.994,63.994,63.994
AlPt,184.169,184.169,184.169
AlRe,218.955,218.955,218.955
LaMg,33.855,33.855,33.855
GaCo,173.828,173.828,173.828
Sm3Al,44.626,44.626,44.626
YAl,63.427,63.427,63.427
YAl3,75.089,75.089,75.089
ScAg,80.1,80.1,80.1
LiAu3,98.057,98.057,98.057
LuAu,96.113,96.113,96.113
ScAu,103.841,103.841,103.841
TiAu,133.377,133.377,133.377
Ti3Au,134.279,134.279,134.279
YAu,83.993,83.993,83.993
BePd,173.217,173.217,173.217
BeRh,207.982,207.982,207.982
TiBe,124.845,124.845,124.845
CaHg,36.327,36.327,36.327
ScIr,166.725,166.725,166.725
CaSn3,44.225,44.225,44.225
NbCd3,93.666,93.666,93.666
ZrCd3,78.411,78.411,78.411
TaCo3,242.198,242.198,242.198
TiCu,129.327,129.327,129.327
DyTl,53.012,53.012,53.012
EuHg,41.48,41.48,41.48
GaIr,215.702,215.702,215.702
GaPt3,215.396,215.396,215.396
TbGa3,72.033,72.033,72.033
HfOs,225.228,225.228,225.228
HfPt,179.474,179.474,179.474
HfRh,180.032,180.032,180.032
HfTc,188.407,188.407,188.407
NdHg,55.951,55.951,55.951
PrHg,54.378,54.378,54.378
ScHg,76.842,76.842,76.842
HoIr,137.797,137.797,137.797
GaAg,65.386,65.386,65.386
ZrIr,191.238,191.238,191.238
LaPt3,138.513,138.513,138.513
LaTl,46.826,46.826,46.826
LuZn,67.899,67.899,67.899
MgTl,33.764,33.764,33.764
URh3,214.274,214.274,214.274
MnNi,149.566,148.944,149.255
MnZn,91.942,91.942,91.942
MnZn3,80.961,80.961,80.961
NbRu,228.567,228.567,228.567
NbRu3,254.366,254.366,254.366
TiRh3,228.591,228.591,228.591
ScNi,106.024,106.024,106.024
Ni3Sn,166.201,166.201,166.201
NpRh3,215.446,215.446,215.446
ZrOs,208.008,208.008,208.008
TiPd,153.552,153.552,153.552
TiPt,185.077,185.077,185.077
ZrPt,165.913,165.913,165.913
TbRh,109.058,109.058,109.058
TiRh,187.05,187.05,187.05
TmRh,118.772,118.772,118.772
ScZn,75.344,75.344,75.344
SmTl,52.78,52.78,52.78
YSn3,57.293,57.293,57.293
TaTc,257.672,257.672,257.672
TiTc,204.076,204.076,204.076
YbTl,32.524,32.524,32.524
VZn3,117.948,117.948,117.948
LuPd3,134.504,134.504,134.504
ScCu,86.854,86.854,86.854
MgRh,115.355,115.355,115.355
MgSc,49.321,49.321,49.321
Ir3Os,359.91,359.91,359.91
Ir3Rh,323.477,323.477,323.477
VRh3,251.212,251.212,251.212
Re3Ir,365.406,365.406,365.406
HoMg,41.356,41.356,41.356
Ag3Pt,121.006,121.006,121.006
MnAl,145.789,145.789,145.789
CrIr3,307.958,307.958,307.958
Cu3Pt,169.333,169.333,169.333
TiPt3,238.047,238.047,238.047
ScCd,67.024,67.024,67.024
TaRu,241.27,241.27,241.27
NdAg,55.86,55.86,55.86
CrRh3,230.758,230.758,230.758
YbAl3,59.791,59.791,59.791
ScIr3,243.259,243.259,243.259
TiIr,218.372,218.372,218.372
PrPt3,153.052,153.052,153.052
EuZn,37.377,37.377,37.377
URu3,200.183,200.183,200.183
CdAu3,113.161,113.161,113.161
Cd3In,36.705,36.705,36.705
MnAu,113.631,113.59,113.61
PrB6,173.84,173.84,173.84
TbB6,174.096,174.096,174.096
VOs,284.95,284.95,284.95
Ni3Pt,202.169,202.169,202.169
ErIn3,55.358,55.358,55.358
ErB6,174.535,174.535,174.535
ScN,180.503,180.503,180.503
ScAs,85.186,85.186,85.186
ScSb,68.171,68.171,68.171
MoN,326.003,326.003,326.003
YN,148.248,148.248,148.248
MoPt3,252.326,252.326,252.326
LaN,128.447,128.447,128.447
HgTe,44.21,44.21,44.21
ZnO,160.554,160.554,160.554
NdMg,37.564,37.564,37.564
VFe,195.793,195.793,195.793
NbIr3,313.146,313.146,313.146
Cu3N,161.585,161.585,161.585
ZrPd,138.768,138.768,138.768
VRu,230.974,230.974,230.974
MgHg,45.593,45.593,45.593
FeNi3,199.381,199.381,199.381
BiN,116.636,116.636,116.636
AgN,147.992,147.992,147.992
SbN,127.829,127.829,127.829
ZrIr3,267.921,267.921,267.921
Zr3Al,100.33,100.33,100.33
SnTe,42.065,42.065,42.065
ZnNi,146.22,146.22,146.22
AlNi,157.34,157.34,157.34
TmMg,43.263,43.263,43.263
CeRh3,171.204,171.204,171.204
LuIr,147.522,147.522,147.522
Nd3Tl,41.606,41.606,41.606
HoTl,55.065,55.065,55.065
PrMg,37.078,37.078,37.078
TbPt3,169.757,169.757,169.757
Nb4C3,269.426,269.426,269.426
PrPd3,111.571,111.571,111.571
TmGa3,76.098,76.098,76.098
ZrHg3,82.284,82.284,82.284
TbMg,40.716,40.716,40.716
Fe3Pt,193.551,192.861,193.206
YP,86.948,86.948,86.948
YAs,77.023,77.023,77.023
La3Sn,44.031,44.031,44.031
ZnAu,114.545,114.545,114.545
UAl3,88.376,88.376,88.376
ThB6,195.95,195.95,195.95
ScRh,138.583,138.583,138.583
NbF3,93.987,93.987,93.987
TbCu,71.128,71.128,71.128
YbCd,31.809,31.809,31.809
Fe15Co,181.802,181.802,181.802
HoAl3,76.786,76.786,76.786
AlPt3,224.023,224.023,224.023
AlIr,229.406,229.406,229.406
ReO3,238.343,237.35,237.846
MnPd,132.501,132.501,132.501
YRh,106.896,106.896,106.896
CeSn3,58.694,58.694,58.694
ZnAg,89.933,89.933,89.933
ErPt3,177.756,177.756,177.756
FeRh,198.729,198.729,198.729
ThTe,83.002,83.002,83.002
NdB6,174.362,174.362,174.362
Cu3N,116.742,116.742,116.742
GaNi,152.55,152.55,152.55
LaAg,48.529,48.529,48.529
HoPt3,174.749,174.749,174.749
ErCu,73.462,73.462,73.462
HoCu,73.432,73.432,73.432
EuTe,50.965,50.965,50.965
UPb3,121.842,121.842,121.842
Pr3In,41.265,41.265,41.265
NdSn3,56.558,56.558,56.558
HoPd3,127.535,127.535,127.535
Fe11Si5,222.032,222.032,222.032
TmPb3,49.521,49.521,49.521
GaFe3,169.4,169.4,169.4
Ce3Ga,43.072,43.072,43.072
NdIr3,191.377,191.377,191.377
GdTl,32.249,32.249,32.249
SmIn3,54.505,54.505,54.505
LaTl3,44.459,44.459,44.459
PrIn,51.835,51.835,51.835
LiHg,32.253,32.253,32.253
FeSe,112.111,112.111,112.111
YIn3,54.648,54.648,54.648
ThIn3,65.84,65.84,65.84
UGa3,83.085,83.085,83.085
CePb3,50.804,50.804,50.804
CaIn,34.02,34.02,34.02
HfCo,123.98,123.98,123.98
SmIn,55.174,55.174,55.174
Fe3Ge,175.908,175.908,175.908
DyTh,47.183,47.183,47.183
NpSi3,175.278,175.278,175.278
PuTe,19.367,19.367,19.367
YbIn3,38.382,38.382,38.382
La3Ga,40.212,40.212,40.212
CaPb3,38.108,38.108,38.108
NaPb3,32.491,32.491,32.491
MgIn3,37.336,37.336,37.336
LaIn,49.919,49.919,49.919
NdPb3,47.766,47.766,47.766
ThTl3,58.019,58.019,58.019
Zr3In,96.578,96.578,96.578
LaIn3,49.718,49.718,49.718
Ce3Sn,38.321,38.321,38.321
DyMg,41.646,41.646,41.646
NpGa3,97.898,97.898,97.898
Pt3Pb,172.406,172.406,172.406
Pd3Pb,129.07,129.07,129.07
EuB6,143.683,143.683,143.683
NpAs,83.6,83.6,83.6
FeCo,189.836,189.836,189.836
PrIn3,52.62,52.62,52.62
TbIn3,55.261,55.261,55.261
Pr3Al,42.665,42.665,42.665
PrPb3,47.139,47.139,47.139
UIn3,61.685,61.685,61.685
TePb,40.408,40.408,40.408
SnPt3,198.87,198.87,198.87
InNi,116.101,116.101,116.101
GdIn,104.041,104.041,104.041
Ni3Ge,190.994,190.994,190.994
CuAu3,135.617,135.617,135.617
UAs,97.753,97.753,97.753
CeP,72.137,72.137,72.137
NdIn3,53.471,53.471,53.471
Sm3In,44.614,44.614,44.614
ScAl3,86.5,86.5,86.5
PbSe,56.543,56.543,56.543
InPd,110.79,110.79,110.79
EuMg,17.65,17.65,17.65
HfIr3,278.691,278.691,278.691
TiZn3,100.968,100.968,100.968
CaPd,55.058,55.058,55.058
ErAl3,76.715,76.715,76.715
CeB6,172.63,172.63,172.63
ThPb3,58.108,58.108,58.108
ZrRu,180.261,180.261,180.261
YbPb3,39.636,39.636,39.636
HoIn3,55.314,55.314,55.314
LaPb3,45.604,45.604,45.604
Pr3Pb,42.807,42.807,42.807
Nd3In,41.855,41.855,41.855
PuGe3,76.629,76.629,76.629
HoRh,113.966,113.966,113.966
DyAg,66.847,66.847,66.847
ErTl,57.284,57.284,57.284
Pd17Se15,98.118,98.118,98.118
TiRe,228.62,228.62,228.62
UTl3,51.996,51.996,51.996
FePd3,166.438,166.438,166.438
YB6,172.001,172.001,172.001
LuPd,102.592,102.592,102.592
ZrCu,105.385,105.385,105.385
ScCo,119.727,119.727,119.727
MnHg,69.323,69.323,69.323
DyPd,91.251,91.251,91.251
GdB6,167.657,167.657,167.657
ErMg,42.316,42.316,42.316
GaRu,204.343,204.343,204.343
Fe3Sn,124.102,124.102,124.102
Cu3Au,104.875,104.875,104.875
TbAg,65.884,65.884,65.884
YIn,56.047,56.047,56.047
CoSi,206.375,206.375,206.375
ZrCo,128.339,128.339,128.339
NaCl,25.834,25.834,25.834
CsCl,14.588,14.588,14.588
TlBr,19.646,19.646,19.646
ZrRh3,209.808,209.808,209.808
KI,12.418,12.418,12.418
CsBr,12.31,12.31,12.31
AgI,32.309,32.309,32.309
DyZn,59.752,59.752,59.752
NbO,242.599,242.599,242.599
SrBi3,42.244,42.244,42.244
TmZn,63.975,63.975,63.975
TlI,16.52,16.52,16.52
DyRh,112.175,112.175,112.175
BaBi3,39.346,39.346,39.346
BeCu,142.088,142.088,142.088
KCl,18.701,18.701,18.701
RbCl,16.534,16.534,16.534
RbI,11.14,11.14,11.14
NdPd3,115.77,115.77,115.77
DyCu,71.228,71.228,71.228
TmPt3,179.331,179.331,179.331
ErRh,114.582,114.582,114.582
YbPd3,107.848,107.848,107.848
YTl3,46.531,46.531,46.531
YHg,65.407,65.407,65.407
YPt3,169.488,169.488,169.488
Ce3Al,43.376,43.376,43.376
DyIr3,212.008,212.008,212.008
SrB6,144.836,144.836,144.836
LiAg,41.392,41.392,41.392
ErTl3,47.25,47.25,47.25
SrTl,25.126,25.126,25.126
GaRh,179.773,179.773,179.773
NbRh3,248.556,248.556,248.556
YbIn,35.186,35.186,35.186
TiF3,102.445,101.952,102.198
DyPt3,172.498,172.498,172.498
YAg,65.962,65.962,65.962
SmSn3,57.389,57.389,57.389
ThRh3,170.311,170.311,170.311
CrPt3,231.851,231.851,231.851
YZn,60.055,60.055,60.055
PrAg,54.408,54.408,54.408
VTc,254.937,254.937,254.937
YbPd,60.162,60.162,60.162
SmMg,36.23,36.23,36.23
Ti3Hg,115.477,115.477,115.477
SrMg,19.806,19.806,19.806
NpAl3,95.504,95.504,95.504
Mn3Rh,238.125,238.125,238.125
BaTe,31.625,31.625,31.625
LaZn,49.02,49.02,49.02
ErAg,69.968,69.968,69.968
TaO3,187.237,187.237,187.237
GdMg,216.967,216.967,216.967
Na3N,21.088,21.088,21.088
CdAg,73.469,73.469,73.469
TaIr3,323.564,323.564,323.564
AlFe,170.575,170.575,170.575
CsAu,10.059,10.059,10.059
MgCu,80.505,80.329,80.417
ScPd3,143.721,143.721,143.721
LaB6,181.75,181.75,181.75
HoGa3,69.38,69.38,69.38
MgAg,63.271,63.271,63.271
ErIr,140.411,140.411,140.411
LiPd,72.655,72.655,72.655
TbPd3,126.101,126.101,126.101
CdAu,90.157,90.157,90.157
BeCo,196.762,196.762,196.762
HoAg,68.602,68.602,68.602
ScPd,110.671,110.671,110.671
USi3,129.573,129.573,129.573
HfRu,198.115,198.115,198.115
ZrRh,164.388,164.388,164.388
InTe,37.644,37.644,37.644
ErPd3,129.717,129.717,129.717
AlCo,178.781,178.781,178.781
TiOs,248.343,248.343,248.343
YbPt3,158.564,158.564,158.564
TlBi,36.786,36.786,36.786
Y3Al,49.823,49.823,49.823
InAg3,77.989,77.989,77.989
MgAg3,77.693,77.693,77.693
AgPt3,200.369,200.369,200.369
TmAg3,74.075,74.075,74.075
Zr3Ag,97.309,97.309,97.309
ThBi,73.55,73.55,73.55
TiFe,198.715,198.715,198.715
PaIr3,259.63,259.63,259.63
YIr,130.242,130.242,130.242
MgPt3,183.899,183.899,183.899
PaRh3,212.903,212.903,212.903
SmPt3,160.432,160.432,160.432
ZnPt3,211.734,211.734,211.734
ZrPt3,221.479,221.479,221.479
ScRu,148.847,148.847,148.847
TbTl,52.636,52.636,52.636
InPd3,143.036,143.036,143.036
MnV,243.086,243.086,243.086
Nd2O3,113.322,113.322,113.322
La2O3,100.901,100.901,100.901
ScAl,78.486,78.486,78.486
TmPd,97.651,97.651,97.651
SmPd3,120.483,120.483,120.483
AlRh,194.408,194.408,194.408
VPt3,237.489,237.489,237.489
UO3,153.034,153.034,153.034
PrSn3,56.073,56.073,56.073
LuRh,122.628,122.628,122.628
SiRu,257.369,257.369,257.369
ErGa3,73.646,73.646,73.646
MnRh,183.708,183.708,183.708
YbB6,154.194,154.194,154.194
ThSn3,68.417,68.417,68.417
SmRh,101.019,101.019,101.019
MgAu,81.405,81.405,81.405
PrZn,50.277,50.277,50.277
ScPt3,198.156,198.156,198.156
LuGa3,68.978,68.978,68.978
MgPd,93.324,93.324,93.324
BaCd,19.668,19.668,19.668
Fe4N,193.027,193.027,193.027
SrHg,27.259,27.259,27.259
AlRu,203.483,203.483,203.483
YF3,100.271,100.271,100.271
YPd3,124.541,124.541,124.541
YbRh,81.33,81.33,81.33
YbRu,73.949,73.949,73.949
NdGa3,68.84,68.84,68.84
DyAl3,75.98,75.98,75.98
DyB6,171.865,171.865,171.865
YbIr,98.022,98.022,98.022
VPd3,175.556,175.556,175.556
NdPt3,155.153,155.153,155.153
Mg3In,39.204,39.204,39.204
PmMg,40.401,40.401,40.401
ZrAl3,102.592,102.592,102.592
TlPd3,132.434,132.434,132.434
Ce3Pb,47.518,47.518,47.518
ZrZn,106.664,106.664,106.664
PrAl3,67.033,67.033,67.033
Ti3Sn,114.12,114.12,114.12
V3Au,177.227,177.227,177.227
KBr,15.624,15.624,15.624
TiNi,154.95,154.95,154.95
Pr3Sn,45.876,45.876,45.876
Nb3Ge,171.72,171.72,171.72
TmB6,174.157,174.157,174.157
NdTl,51.435,51.435,51.435
HoB6,173.233,173.233,173.233
SmCd,51.061,51.061,51.061
EuCd,24.939,24.939,24.939
Zr3Cu,111.07,111.07,111.07
Cu3Pd,149.816,149.816,149.816
TiRu,215.387,215.387,215.387
Fe9Co7,-6321465.83,9990708.681,1834621.425
PdO,174.638,174.638,174.638
TiCo3,142.93,142.93,142.93
YMg,41.771,41.771,41.771
CsH,11.732,11.732,11.732
LaSn3,56.392,56.392,56.392
ScRh3,185.005,185.005,185.005
TiPd3,179.376,179.376,179.376
V3Pt,209.896,209.896,209.896
Mn4N,63.552,63.552,63.552
PrCd,47.806,47.806,47.806
FePt3,263.838,263.838,263.838
GeTe,46.694,46.694,46.694
LaPd3,109.965,109.965,109.965
SrSi,38.381,38.384,38.382
Pr3Tl,40.884,40.884,40.884
ZnRh,171.239,171.239,171.239
SmB6,174.855,174.855,174.855
YCu,70.25,70.25,70.25
PrTe,58.128,58.128,58.128
SnPd3,145.871,145.871,145.871
TbCd,54.797,54.797,54.797
TiO,208.643,208.643,208.643
TmAl3,77.938,77.938,77.938
SiB6,150.882,150.882,150.882
MgPd3,128.765,128.765,128.765
LaCd,45.631,45.631,45.631
LuPt3,182.998,182.998,182.998
DyPd3,127.136,127.136,127.136
AlF3,124.366,124.366,124.366
W3N4,344.254,344.254,344.254
TmTl3,46.269,46.269,46.269
TiCo,351.113,351.113,351.113
SiNi3,209.083,209.083,209.083
AlPd,155.221,155.221,155.221
HoPd,94.522,94.522,94.522
TaF3,100.51,100.51,100.51
TbZn,57.624,57.624,57.624
KF,33.925,33.925,33.925
ErPd,95.906,95.906,95.906
LiPt3,182.434,182.434,182.434
LiPd3,120.749,120.749,120.749
Ac3Sn,34.933,34.933,34.933
PaSi3,122.743,122.743,122.743
Pa3Si,108.501,108.501,108.501
Pa3Sb,104.598,104.598,104.598
Pa3Te,105.402,105.402,105.402
Pa3Ge,111.033,111.033,111.033
PmPd3,117.777,117.777,117.777
LiGa3,39.269,39.269,39.269
HgPd3,139.163,139.163,139.163
Ho3In,50.028,50.028,50.028
AgAu3,121.457,121.457,121.457
ZnAg3,90.519,90.519,90.519
CaB6,146.893,146.893,146.893
CrPd3,152.758,152.758,152.758
CaBi3,45.159,45.159,45.159
CdPt3,189.833,189.833,189.833
Ti3Zn,110.213,110.213,110.213
AcAg,43.963,43.963,43.963
AcMg,30.934,30.934,30.934
ErCd,59.501,59.501,59.501
Pm3Pb,44.905,44.905,44.905
LaBi3,53.973,53.973,53.973
TaRu3,276.055,276.055,276.055
AlOs,236.689,236.689,236.689
NpSn3,54.068,54.054,54.061
ScPt,137.028,137.028,137.028
InRh,149.828,149.828,149.828
BaZn,20.356,20.356,20.356
YCd,56.99,56.99,56.99
CoPt3,227.99,227.99,227.99
ScGa3,73.065,73.065,73.065
LiTl,26.903,26.903,26.903
NbZn3,118.284,118.284,118.284
BaB6,141.127,141.127,141.127
Si3N2,142.078,142.078,142.078
Ge3N2,99.291,99.291,99.291
V3Ag,159.817,159.817,159.817
ZnGa3,48.624,48.624,48.624
ZnGe3,61.403,61.403,61.403
ZnSi3,78.371,78.371,78.371
ZnHg3,21.227,21.227,21.227
Zn3B,98.999,98.999,98.999
Zn3C,96.641,96.641,96.641
Zr3Pt,128.477,128.477,128.477
Tm3P,60.974,60.974,60.974
YbTh3,44.763,44.763,44.763
ZrH3,129.755,129.755,129.755
U3C,177.966,177.966,177.966
TbY3,39.722,39.722,39.722
Tl3Hg,26.92,26.92,26.92
YbMg,24.014,24.014,24.014
ScRu3,203.337,203.337,203.337
La3Hf,40.645,40.645,40.645
MgCr,57.229,57.229,57.229
LiTl3,26.317,26.317,26.317
NdTm3,40.739,40.739,40.739
SbRh3,205.763,205.763,205.763
Hg3C,60.843,60.843,60.843
LuTh3,51.667,51.667,51.667
LuRu3,191.106,191.106,191.106
Hg3F,43.402,43.402,43.402
PdAu3,143.059,143.059,143.059
PaAl3,93.654,93.654,93.654
Ga3Ge,49.122,49.122,49.122
LiDy3,32.831,32.831,32.831
Nd3Sm,34.408,34.408,34.408
RuRh3,265.771,265.771,265.771
PtRh3,252.972,252.972,252.972
Pt3Rh,248.019,248.019,248.019
Ru3I,200.1,200.1,200.1
Hg3Pd,68.071,68.071,68.071
K3Tl,5.574,5.574,5.574
Rb3Sr,3.974,3.974,3.974
KPr3,21.468,21.468,21.468
NdY3,38.765,38.765,38.765
Rb3Na,3.34,3.34,3.34
Rb3Li,3.531,3.531,3.531
Rb3In,4.908,4.908,4.908
RbF3,20.725,20.725,20.725
RbCa3,11.416,11.416,11.416
Mn3S,179.718,179.718,179.718
InSb3,44.916,44.916,44.916
RbAl,10.655,10.655,10.655
Ge3B,65.787,65.787,65.787
Pr3Hf,43.976,43.976,43.976
Pr3Er,34.921,34.921,34.921
NdGe3,69.174,69.174,69.174
PrSm3,35.965,35.965,35.965
NaLa3,21.316,21.316,21.316
Li3Cr,22.421,22.421,22.421
PrGe3,69.29,69.29,69.29
Ge3Sb,60.19,60.19,60.19
PrDy3,38.535,38.535,38.535
Li3Mg,18.827,18.827,18.827
NaHo3,31.547,31.547,31.547
LiLa3,30.515,30.515,30.515
HoTh3,52.284,52.284,52.284
Hf3Au,122.505,122.505,122.505
NiAg3,127.322,127.322,127.322
NiAu3,144.369,144.369,144.369
Ni3Bi,136.809,136.809,136.809
Ni3Sb,164.639,164.639,164.639
NaMg3,24.546,24.546,24.546
LuIn3,54.557,54.557,54.557
PrAs3,75.341,75.341,75.341
OsAu3,183.641,183.641,183.641
Be3Tc,175.35,175.35,175.35
HfH3,141.255,141.255,141.255
Zr3Tl,96.017,96.017,96.017
ZnMo3,217.767,217.767,217.767
Rb3Sm,5.436,5.436,5.436
Mg3Al,44.909,44.909,44.909
Mg3Cd,37.897,37.897,37.897
Mg3Ga,41.632,41.632,41.632
Mg3Hg,40.931,40.931,40.931
Mg3Mn,44.054,44.054,44.054
Mg3Mo,72.683,72.683,72.683
Mg3Sn,41.535,41.535,41.535
Mg3Re,80.582,80.582,80.582
Mg3Ta,69.102,69.102,69.102
Sc3Al,64.254,64.254,64.254
SmAs3,77.887,77.887,77.887
SmTh3,52.79,52.79,52.79
SmTm3,41.344,41.344,41.344
Sm3Hf,47.667,47.667,47.667
SmY3,39.02,39.02,39.02
Sn3B,44.748,44.748,44.748
Th3Mg,52.8,52.8,52.8
Th3Be,62.166,62.166,62.166
Th3Au,72.964,72.964,72.964
Tl3Cd,27.4,27.4,27.4
Dy3Y,40.892,40.892,40.892
YGa3,69.461,69.461,69.461
RbYb3,9.676,9.676,9.676
Yb3V,20.968,20.968,20.968
Yb3Mg,18.16,18.16,18.16
Yb3Ti,20.615,20.615,20.615
YbP3,77.34,77.34,77.34
YbPr3,28.124,28.124,28.124
TmTh3,52.713,52.713,52.713
YbDy3,33.683,33.683,33.683
TiOs3,308.449,308.449,308.449
TmSi3,89.137,89.137,89.137
Ti3N,122.949,122.949,122.949
Ti3Nb,123.599,123.599,123.599
Sr3Cr,14.914,14.914,14.914
Ti3Ni,117.97,117.97,117.97
Zn3Co,118.899,118.899,118.899