formula,bulk_modulus_voigt,bulk_modulus_reuss,bulk_modulus_vrh
Ti3Ge,123.634,123.634,123.634
Ti3Ga,109.768,109.768,109.768
Ti3Al,107.662,107.662,107.662
TbH3,97.788,97.788,97.788
Pd3N,167.551,167.551,167.551
NbNi3,200.065,200.065,200.065
NbFe3,198.022,198.022,198.022
NbCr3,226.813,226.813,226.813
Nb3Fe,187.538,187.538,187.538
Nb3Ni,174.363,174.363,174.363
Nb3Cr,183.542,183.542,183.542
ZnN,169.406,169.406,169.406
Na3N,29.531,29.531,29.531
Mn3Ga,184.623,184.623,184.623
UBe13,123.142,123.142,123.142
ThBe13,117.752,117.752,117.752
HfBe13,125.555,125.555,125.555
KCd13,38.647,38.647,38.647
CeBe13,-59113.665,149.859,-29481.903
CaZn13,71.135,71.135,71.135
MgBe13,99.848,99.848,99.848
NaZn13,64.356,64.356,64.356
LiB,125.064,125.064,125.064
CrN2,112.156,112.156,112.156
YNi2,-466920.385,113.265,-233403.56
MgCu2,91.482,91.482,91.482
HfV2,143.701,143.701,143.701
Ni3S4,119.054,119.054,119.054
NaAu2,71.011,71.011,71.011
PrPt2,-125095.007,218.236,-62438.385
TbS2,-64067242.51,-640.582,-32033941.55
TmS2,62.622,62.622,62.622
LiAl,48.228,48.228,48.228
Ti2C,121.304,121.304,121.304
UOs2,491.593,491.593,491.593
SmPt2,156.601,156.601,156.601
Li2Ca,16.117,16.117,16.117
ThIr2,203.203,203.203,203.203
PrAl2,73.605,73.605,73.605
Hf2Co,136.052,136.052,136.052
ErAl2,82.064,82.064,82.064
LuAl2,378976.679,107.164,189541.922
YCo2,-337.952,-6006.391,-3172.172
LiGa,42.172,42.172,42.172
NdNi2,108.469,108.469,108.469
SrPt2,117.262,117.262,117.262
DyIr2,198.438,198.438,198.438
UCo2,93827444.87,38798386.01,66312915.44
DyRh2,154.129,154.129,154.129
CoSe2,30.307,30.307,30.307
HfW2,222.256,222.256,222.256
ZrZn2,103.307,103.307,103.307
SmNi2,110.17,110.17,110.17
CrS2,47.448,47.278,47.363
TiCr2,198.812,198.812,198.812
LiCd,35.162,35.162,35.162
BiO2,55.273,55.273,55.273
LaIr2,174.499,174.499,174.499
ErIr2,202.819,202.819,202.819
SrPd2,80.634,80.634,80.634
YFe2,96.649,79.811,88.23
YbIr2,21839353.73,6650.068,10923001.9
YS2,65.572,65.572,65.572
DyS2,61.139,61.139,61.139
HoS2,61.905,61.905,61.905
SrAl2,47.886,47.886,47.886
CeNi2,0,0,0
UIr2,239.465,239.465,239.465
ThAl2,80.85,80.85,80.85
BaPd2,73.421,73.421,73.421
TbPt2,163.153,163.153,163.153
LaRh2,131.545,131.545,131.545
ZrFe2,150.007,144.102,147.055
SmRu2,157.736,157.736,157.736
SmFe2,91.755,91.497,91.626
DyFe2,90.449,89.964,90.207
LuIr2,501.951,229.19,365.57
ErRh2,160.655,160.655,160.655
LaOs2,182.831,182.831,182.831
TaCo2,247.841,247.841,247.841
Ti2Ni,1130.148,152.54,641.344
ThOs2,245219.302,252.414,122735.858
Mg2Pd,68.21,68.21,68.21
EuPd2,91.067,91.067,91.067
LaMg2,33.099,33.099,33.099
HoFe2,92.151,74.196,83.173
LiZn,41.652,41.652,41.652
ErNi2,123.362,123.362,123.362
PbAu2,82.187,82.187,82.187
Sb2O3,12.83,12.83,12.83
TbMn2,487.242,-44.163,221.539
EuAl2,-1273583.283,72.591,-636755.346
PrNi2,98.368,98.368,98.368
LaRu2,128.334,128.334,128.334
Be2Nb,156.483,156.483,156.483
Be2Cu,135.017,135.017,135.017
CeFe2,87.504,60.819,74.162
Co3Se4,98.035,98.035,98.035
ZrMo2,-22443.895,259.073,-11092.411
Si3N4,294.14,294.14,294.14
PrCo2,94.355,-4101.932,-2003.788
CeAl2,74.275,74.275,74.275
CeOs2,192.391,192.391,192.391
ZrMn2,-41056.787,248.159,-20404.314
LuNi2,72.926,72.922,72.924
LuCo2,191.768,191.768,191.768
YbRh2,-5659.078,143.25,-2757.914
LiIn,32.743,32.743,32.743
ZrNi2,166.427,166.427,166.427
ScIr2,216.325,216.325,216.325
TbCo2,73.809,7.113,40.461
CsBi2,-145290.062,29.974,-72630.044
YAl2,79.891,79.891,79.891
RbBi2,812543.681,29.064,406286.373
KBi2,67312.67,29.071,33670.871
HfCo2,183.341,183.341,183.341
SmAl2,40286919.81,157.766,20143538.79
HfMo2,357.207,252.011,304.609
TaCr2,242.207,242.207,242.207
HoCo2,-319.999,-323.357,-321.678
CaAl2,55.933,55.929,55.931
LuFe2,114.262,113.372,113.817
PrOs2,-247921.712,193.419,-123864.146
Mg2Ge,39.618,39.618,39.618
TiO2,107.79,107.79,107.79
PrRh2,138.487,138.487,138.487
ScCo2,201.736,-2434.475,-1116.369
NdS2,-64114035.61,36.566,-32056999.52
ZrV2,138.858,138.858,138.858
PrRu2,151.337,151.337,151.337
YPt2,162.277,162.277,162.277
TaBe2,167.518,167.518,167.518
WN2,121.57,121.557,121.564
LaAl2,64.416,64.416,64.416
LaNi2,103.215,103.215,103.215
NdPt2,151.763,151.763,151.763
TbIr2,196.495,196.495,196.495
TiBe2,124.06,124.06,124.06
TbNi2,119.456,119.456,119.456
YIr2,196.294,196.294,196.294
YbCo2,94.142,93.209,93.676
NaAg2,47.598,47.598,47.598
Be22W,133.551,133.551,133.551
Ti2Co,96.827,96.827,96.827
LiPt2,135.254,135.254,135.254
PuOs2,10069.175,241.959,5155.567
PuZn2,-138786.067,97.213,-69344.427
TmRh2,-12135.445,221.289,-5957.078
NpCo2,170.761,171.478,171.119
AlFe2,132.07,130.36,131.215
SrIr2,146.445,146.445,146.445
HfFe2,163.438,163.345,163.391
SmCo2,511.56,504.935,508.248
UMn2,0,0,0
NdAl2,72.11,72.11,72.11
YbPt2,141.375,141.375,141.375
DyNi2,75297866276,355.531,37648933316
NdCo2,-294.497,-298.599,-296.548
UAl2,82.958,82.958,82.958
ErFe2,98.843,97.721,98.282
ErPt2,166.753,166.753,166.753
Li13In3,22.544,22.544,22.544
HfZn2,110.274,110.274,110.274
ScFe2,126.158,124.482,125.32
HoRh2,156.517,156.517,156.517
NbCr2,228.632,228.632,228.632
BaAl2,42.631,42.631,42.631
C3N4,383.458,383.458,383.458
TaV2,194.158,194.158,194.158
Nd2Al,-12612.763,41.489,-6285.637
ScB2,180.697,180.697,180.697
BaRh2,93.612,93.495,93.554
Be22Re,136.579,136.579,136.579
BiAu2,100.689,100.689,100.689
CaIr2,1441596.418,179.256,720887.837
Mg2Sn,38.486,38.486,38.486
Mg2Si,44.169,44.169,44.169
PrRe2,181.71,181.71,181.71
CaRh2,118.845,118.843,118.844
TmPt2,169.621,169.621,169.621
ThRu2,39266.859,176.212,19721.536
CeIr2,195.743,195.743,195.743
TbFe2,68.608,97.589,83.099
Be2Ag,125.633,125.633,125.633
CeRu2,219.851,219.851,219.851
TmCo2,95.225,-22.088,36.569
NbCo2,-572024.852,254.501,-285885.176
HoNi2,124.103,124.103,124.103
ZrW2,213.964,213.964,213.964
TiCo2,-9.39745E+11,969.496,-4.69872E+11
NdSi2,80.01,80.01,80.01
ZrIr2,245.659,245.659,245.659
ThMg2,50.194,50.194,50.194
BaPt2,103.144,103.144,103.144
TbAl2,79.498,79.498,79.498
DyAl2,-16362213.72,170.976,-8181021.374
ScAl2,91.019,117.253,104.136
HfCr2,188.948,188.948,188.948
CaPd2,93.613,93.613,93.613
SiO2,146.005,146.005,146.005
SmRh2,146.007,146.007,146.007
CaPt2,132.905,132.905,132.905
ScNi2,142.02,142.02,142.02
TmAl2,83.144,83.144,83.144
NdIr2,183.307,183.307,183.307
TiS2,46.408,46.408,46.408
ZrCr2,180.27,180.27,180.27
LaPt2,143.888,143.888,143.888
YRh2,152.291,152.291,152.291
ZrCo2,259939.1,-168.524,129885.288
Co3S4,137.596,156.695,147.145
PrIr2,179.692,179.692,179.692
CeRh2,144.079,144.079,144.079
YbAl2,-1048773.249,71.283,-524350.983
MgZn2,-22280.696,70.324,-11105.186
EuIr2,164.305,164.215,164.26
RuF6,1543160.38,17.761,771589.071
TcF6,6.037,6.037,6.037
ReF6,5.079,5.079,5.079
Mg13Al14,48.999,48.999,48.999
Sb7Mo3,107.671,107.671,107.671
Sn7Ir3,110.258,110.258,110.258
Sn7Ru3,106.18,106.18,106.18
Sn7Os3,119.38,119.38,119.38
Sb3Au,66.29,66.29,66.29
Ge7Ir3,141.767,141.767,141.767
SiW3,191.427,191.427,191.427
NiHg4,50.645,50.645,50.645
V3Si,132.693,132.693,132.693
Pt3O4,2269616.49,236.501,1134926.496
Ca3Ag8,49.399,49.399,49.399
Hg4Pt,60.904,60.904,60.904
Ga4Ni3,135.145,135.145,135.145
Ag3Sb,75.93,74.265,75.098
Li3Mg,19.351,19.314,19.333
ZrO2,194.739,193.459,194.099
HfO2,209.058,207.902,208.48
WN,333.465,283.243,308.354
Te2W,33.988,2.795,18.391
ZrI2,18.168,2.378,10.273
OsN,321.813,318.185,319.999
Al2O3,202.002,201.171,201.586
ZnCl2,6.574,5.812,6.193
SbO2,94.216,93.919,94.068
Br2O,5.952,4.055,5.004
CdP2,55.204,54.788,54.996
SiO2,20.838,19.081,19.96
P2W,189.69,186.721,188.205
SiO2,19.988,-26.942,-3.477
HgI2,2.262,1.611,1.936
BrF3,7.85,5.745,6.798
SbPd2,130.3,122.504,126.402
H2O,15.616,15.596,15.606
B2O3,172.057,165.658,168.858
Al2O3,95.759,89.265,92.512
K2S3,14.947,14.46,14.703
AsPd2,133.549,115.028,124.288
MgZn,47.704,39.497,43.601
MgHg5,22.548,21.596,22.072
MgCd,42.165,41.979,42.072
Sm5Mg,35.318,34.997,35.158
SnS,5.984,1.739,3.861
SnS,10.82,3.464,7.142
Te2O5,57.483,37.691,47.587
SiO2,27.063,24.513,25.788
SbF3,15.82,10.713,13.266
SiO2,24.902,23.267,24.084
SO2,4.599,4.273,4.436
TaS2,27.952,0.707,14.33
NbS2,27.852,-1.377,13.237
NbS2,11.017,0.404,5.711
NbSe2,19.445,-0.241,9.602
Hf2Ga3,116.714,116.546,116.63
PdF4,42.521,31.908,37.214
Zr2Al3,107.693,107.688,107.69
Au2O3,90.767,70.243,80.505
SCl,1.011,1.047,1.029
Zr2Ga3,110.888,110.728,110.808
Cu2O3,109.906,80.414,95.16
Hf2Al3,114.238,114.233,114.235
PtF4,45.583,33.887,39.735
LiO3,38.958,34.188,36.573
Mg3Bi,39.493,39.419,39.456
P3N5,159.116,114.778,136.947
NaO3,25.232,22.451,23.841
LiIr3,243.442,241.596,242.519
InSb,47.203,47.145,47.174
MgRh3,181.406,181.188,181.297
Re3Ru,353.162,352.819,352.99
KO3,17.554,10.575,14.064
P2O5,255.736,236.378,246.057
Mn3Fe,178.17,72.757,125.464
Nb2O5,107.364,24.506,65.935
Fe8N3,210.637,210.282,210.46
VPt,237.296,236.559,236.927
MgCd,42.727,42.62,42.673
MoIr,309.859,309.277,309.568
NbRh,220.382,219.606,219.994
MoRh,265.478,265.093,265.285
CdAu,90.997,87.326,89.162
AlPt2,205.103,204.998,205.051
H5W,55.572,9.266,32.419
IrW,334.012,333.508,333.76
TaIr,273.123,273.039,273.081
TiNi,151.876,139.046,145.461
MgZn,50.051,50.031,50.041
TiPd,152.091,151.753,151.922
TiPt,190.473,190.297,190.385
NbPt,229.609,229.582,229.595
MoPt,275.394,274.881,275.137
GaCl2,3.863,3.002,3.432
HN,24.982,23.785,24.384
Al3Pt5,200.313,199.585,199.949
Al3Pd5,157.339,157.268,157.304
Hf3Rh5,192.889,192.717,192.803
Ti3Rh5,204.706,204.531,204.618
GeAs2,19.521,7.434,13.477
Si3Rh5,205.959,190.635,198.297
Ga3Pd5,145.55,144.438,144.994
Li7Si2,32.657,32.637,32.647
Li13Si4,32.367,32.299,32.333
Y4C5,101.56,100.1,100.83
DyAl,64.613,64.375,64.494
TlF,8.073,5.582,6.828
CoAs2,132.667,116.418,124.542
MnS2,130.009,123.467,126.738
MnB4,278.705,268.322,273.514
CrB4,282.088,267.783,274.936
4-Feb,271.623,254.236,262.93
PtO2,212.055,206.553,209.304
IrN2,326.809,313.579,320.194
P2Ru,190.476,183.797,187.136
FeS2,162.931,161.196,162.063
Ge2Pt,118.286,101.889,110.087
Fe2C,223.515,220.961,222.238
NaO2,33.083,32.286,32.685
InS,28.095,12.697,20.396
NiAs2,103.879,100.721,102.3
FeTe2,95.606,92.778,94.192
NiSb2,78.497,72.245,75.371
CuSe2,70.59,68.671,69.631
FeP2,177.747,172.28,175.013
FeAs2,138.71,133.236,135.973
RhN2,224.981,208.193,216.587
FeSb2,102.336,80.027,91.182
CoSe2,110.299,108.522,109.411
Sb2Ru,113.508,108.99,111.249
OsN2,364.572,354.635,359.603
HfSb2,84.523,84.207,84.365
CuAs2,82.664,82.343,82.504
Ta2P,220.763,220.561,220.662
Co2C,257.907,257.528,257.718
CrSb2,57.961,55.311,56.636
Co2N,249.88,242.98,246.43
YbBr2,17.252,14.678,15.965
CaBr2,20.398,19.486,19.942
CaCl2,19.972,13.684,16.828
As2Os,169.071,163.741,166.406
Sb2Os,131.353,126.374,128.863
Mg2C3,91.825,88.721,90.273
W2C,334.745,333.888,334.316
Hf2P,149.159,149.146,149.153
PtCl2,10.412,0.466,5.439
PdCl2,8.794,1.086,4.94
PdI2,8.852,1.394,5.123
PtN2,274.725,274.47,274.597
RuN2,285.233,272.831,279.032
Ti2S,147.529,147.502,147.515
BPd2,173.533,172.864,173.199
FeSe2,125.794,125.142,125.468
As2Ru,152.996,148.764,150.88
ZrSb2,81.633,81.461,81.547
CoSb2,102.088,97.448,99.768
CoTe2,77.175,70.942,74.058
TbAu3,103.265,99.476,101.371
LuAu3,112.858,111.402,112.13
B2Ru,286.044,280.642,283.343
Ni3Mo,214.559,214.328,214.444
TiCu3,141.245,141.16,141.202
AlCu3,131.667,131.504,131.586
NbNi3,205.155,205.002,205.078
Ta2O5,196.156,192.272,194.214
Cu3Ge,123.712,123.58,123.646
CuTe,19.052,6.001,12.527
Cu3Sb,96.83,84.128,90.479
TiI3,5.22,-2.736,1.242
MoBr3,7.453,1.403,4.428
B2Os,314.205,308.462,311.334
TaPt3,259.646,259.641,259.644
YbAu3,87.314,87.145,87.23
InAu3,110.55,105.211,107.88
Cu3Sn,107.68,104.659,106.169
NbPd3,196.324,196.312,196.318
Ni3Sb,168.278,168.126,168.202
N2O3,2.519,2.491,2.505
TaNi3,218.13,218.119,218.124
SiNi,177.688,169.956,173.822
B8O,209.678,209.038,209.358
GeO2,217.061,215.902,216.482
In2O3,156.766,156.581,156.673
TiO2,205.237,202.351,203.794
Mo2C,295.279,295.143,295.211
Th2S5,96.76,96.589,96.675
Rh2O3,233.769,232.476,233.122
Al2O3,231.637,231.591,231.614
W2C,335.391,334.552,334.971
PbO2,106.255,101.444,103.849
V2C,244.726,244.086,244.406
Fe2N,240.308,240.266,240.287
MgH2,48.544,48.326,48.435
Na3P11,13.909,13.568,13.739
CO2,3.926,3.77,3.848
SiO2,59.831,54.092,56.961
Ca3N2,72.535,72.215,72.375
ZnF2,98.092,97.532,97.812
HfO2,200.96,199.524,200.242
Mn2N,198.265,197.737,198.001
ZnBi,38.38,38.32,38.35
CdSb,39.225,38.881,39.053
PdS2,40.173,2.991,21.582
TiO2,191.071,190.642,190.856
TeO2,25.492,18.627,22.059
AgF2,34.761,25.914,30.338
NiAs2,111.522,110.881,111.202
HgO2,56.649,25.471,41.06
ZnSb,47.798,47.667,47.732
HfO2,219.361,216.38,217.87
Y2O3,140.004,138.86,139.432
ZrO2,198.614,194.693,196.653
Al2O3,228.5,227.914,228.207
SiRu2,258.139,254.499,256.319
FeP,212.361,202.504,207.432
TmPt,112.741,107.462,110.101
SmPt,98.477,96.62,97.549
YPt,104.177,100.128,102.153
HfSi,151.561,151.123,151.342
NiGe,139.543,134.577,137.06
PbO2,93,91.63,92.315
PbO2,78.413,58.837,68.625
Y3Co,-6134079.82,-8983191.411,-7558635.616
SiNi2,196.062,186.739,191.4
Y2Al,55.207,54.465,54.836
Li2S,40.219,40.212,40.216
SiIr,225.979,204.02,215
TbF3,114.652,89.272,101.962
ThS2,90.983,89.936,90.46
Sc2Pt,92.335,88.884,90.609
TiCu4,141.125,140.965,141.045
Nb2N3,304.099,301.181,302.64
Ta2N3,329.228,324.916,327.072
HgO,26.433,18.351,22.392
Ca2Cu,24.254,24.046,24.15
SrZn,24.579,23.719,24.149
MgPd2,115.441,114.634,115.038
ThCu6,117.435,117.272,117.353
HoSi,93.272,93.256,93.264
SrSi,45.195,44.607,44.901
IrSe2,106.232,105.488,105.86
YNi,78.142,75.054,76.598
Rb2Te,11.781,11.453,11.617
Sm2S3,77.351,76.568,76.96
GePd,123.401,122.084,122.742
BaSi2,31.859,31.084,31.472
Sn2S3,20.346,13.344,16.845
Pr2S3,73.152,72.436,72.794
ZrP2,127.03,125.851,126.441
Re2P,299.675,293.604,296.64
AlPt2,204.248,203.66,203.954
Ni2Ge,174.368,167.275,170.822
SnPd2,132.711,128.405,130.558
LaSi,69.413,69.356,69.385
VS,148.103,145.892,146.997
GaPd2,152.126,148.83,150.478
TbSi,90.723,90.714,90.719
YbCu,39.004,37.992,38.498
Co2Si,214.731,209.79,212.261
EuF3,92.461,76.099,84.28
VAs,140.552,136.606,138.579
USe2,72.417,66.092,69.255
Ag2Se,32.33,18.175,25.252
TiP2,132.314,130.71,131.512
Co3B,241.217,240.969,241.093
SiRh2,226.79,215,220.895
V2P,206.925,206.234,206.579
Ni3B,219.908,216.019,217.964
SbRh,134.672,132.395,133.533
SiPd3,161.152,158.862,160.007
FeB,283.909,277.771,280.84
CoB,310.155,307.676,308.915
Cr3C2,320.091,319.267,319.679
PrGe,70.379,70.212,70.295
CrP,202.033,195.644,198.838
CeSi,69.697,69.155,69.426
SiPt3,202.357,197.143,199.75
LaGe,64.215,62.759,63.487
Sb2Se3,19.198,9.674,14.436
P2O5,50.952,29.838,40.395
Ti5Sb3,109.254,108.298,108.776
YbF3,83.719,83.438,83.579
AsRh,157.941,156.948,157.445
Co2P,226.614,220.226,223.42
MnAs,109.077,104.455,106.766
CoP,-538365.234,-488507.661,-513436.447
SnS,25.545,21.128,23.336
GeS,25.968,16.795,21.382
GeRh2,203.404,197.826,200.615
OsF6,6.241,6.225,6.233
InPd2,129.806,129.232,129.519
Ca2Sn,32.106,26.454,29.28
UF6,4.721,4.714,4.717
HgCl2,4.459,4.783,4.621
Bi2S3,26.464,17.433,21.948
SbCl3,2.222,1.124,1.673
CsI3,5.445,5.249,5.347
EuCl2,27.152,25.931,26.542
BiCl3,5.74,2.263,4.002
Bi2Se3,22.282,11.648,16.965
NiBi3,33.179,26.341,29.76
BaCl2,26.453,26.037,26.245
PCl3,1.531,-0.645,0.443
BiF3,66.225,42.708,54.467
BaI2,16.279,15.873,16.076
SnPd,98.784,96.37,97.577
MgH2,61.631,61.518,61.574
CaH2,46.972,46.64,46.806
SrH2,37.821,37.36,37.591
BaH2,30.241,29.776,30.008
TiO2,92.355,21.368,56.861
Ca2Si,37.604,35.806,36.705
MnP,181.129,165.947,173.538
Ca5Bi3,32.567,31.77,32.168
PBr3,1.309,0.801,1.055
DyNi,80.253,76.341,78.297
BaBr2,21.849,21.712,21.78
ZrAs2,109.734,109.669,109.701
Sb2S3,21.357,10.871,16.114
AlPd2,158.407,156.795,157.601
HfAs2,114.625,114.473,114.549
SnBr2,5.953,4.078,5.015
SrAg,28.06,27.686,27.873
Er2Pt,76.949,75.992,76.471
Mg2Hg,44.767,43.923,44.345
YZn3,72.287,72.062,72.174
NaP5,38.013,33.237,35.625
SiNi,167.313,162.325,164.819
MgB4,161.517,155.877,158.697
SiPd,152.259,149.994,151.127
FeAs,161.946,158.722,160.334
Nd2S3,74.77,73.984,74.377
Si2Pd9,163.451,163.233,163.342
PtF6,7.212,7.121,7.167
Si3Ru4,237.4,223.865,230.632
Fe3C,218.965,217.349,218.157
Si4Rh3,178.841,178.483,178.662
GePt,141.392,140.832,141.112
IrF6,5.659,5.579,5.619
HoF3,92.069,50.083,71.076
ErNi,83.829,83.177,83.503
SrBr2,18.185,18.101,18.143
SrI2,13.526,13.051,13.289
Er5Si4,79.499,78.538,79.019
ZrTe,88.178,86.827,87.502
SnCl2,10.444,4.844,7.644
AlAu2,121.61,118.774,120.192
Nb2C,226.645,226.502,226.573
BaAu,31.037,30.544,30.79
TiSe,107.261,105.688,106.475
CoAs,143.441,246.989,195.215
U2Se3,69.005,68.756,68.88
AlPd5,160.253,160.187,160.22
CuN6,14.867,5.422,10.145
Fe3C,180.734,180.603,180.669
Al3Ni,113.062,112.771,112.917
SnRh2,177.014,175.791,176.402
La3Co,34.102,31.38,32.741
Si3N4,256.099,253.739,254.919
BN,312.546,287.079,299.812
Gd2S3,78.039,77.721,77.88
ZrRh,158.107,152.935,155.521
SnSe,25.456,22.222,23.839
SiPt,173.874,173.469,173.672
GeSe,22.381,16.64,19.51
TiSi,146.341,145.297,145.819
Y3Pt,56.216,55.014,55.615
Dy2Se3,67.713,66.121,66.917
SmF3,114.898,109.298,112.098
HfO2,229.231,220.567,224.899